      -----------------------------------------------------------      
     |                   =====================                   |     
     |                           x T B                           |     
     |                   =====================                   |     
     |                         S. Grimme                         |     
     |          Mulliken Center for Theoretical Chemistry        |     
     |                    University of Bonn                     |     
      -----------------------------------------------------------      

   * xtb version 6.5.1 (579679a) compiled by 'ehlert@majestix' on 2022-07-11

   xtb is free software: you can redistribute it and/or modify it under
   the terms of the GNU Lesser General Public License as published by
   the Free Software Foundation, either version 3 of the License, or
   (at your option) any later version.
   
   xtb is distributed in the hope that it will be useful,
   but WITHOUT ANY WARRANTY; without even the implied warranty of
   MERCHANTABILITY or FITNESS FOR A PARTICULAR PURPOSE.  See the
   GNU Lesser General Public License for more details.
   
   Cite this work as:
   * C. Bannwarth, E. Caldeweyher, S. Ehlert, A. Hansen, P. Pracht,
     J. Seibert, S. Spicher, S. Grimme, WIREs Comput. Mol. Sci., 2020, 11,
     e01493. DOI: 10.1002/wcms.1493
   
   for GFN2-xTB:
   * C. Bannwarth, S. Ehlert and S. Grimme., J. Chem. Theory Comput., 2019,
     15, 1652-1671. DOI: 10.1021/acs.jctc.8b01176
   for GFN1-xTB:
   * S. Grimme, C. Bannwarth, P. Shushkov, J. Chem. Theory Comput., 2017,
     13, 1989-2009. DOI: 10.1021/acs.jctc.7b00118
   for GFN0-xTB:
   * P. Pracht, E. Caldeweyher, S. Ehlert, S. Grimme, ChemRxiv, 2019, preprint.
     DOI: 10.26434/chemrxiv.8326202.v1
   for GFN-FF:
   * S. Spicher and S. Grimme, Angew. Chem. Int. Ed., 2020, 59, 15665-15673.
     DOI: 10.1002/anie.202004239
   
   for ALPB and GBSA implicit solvation:
   * S. Ehlert, M. Stahn, S. Spicher, S. Grimme, J. Chem. Theory Comput.,
     2021, 17, 4250-4261. DOI: 10.1021/acs.jctc.1c00471
   
   for DFT-D4:
   * E. Caldeweyher, C. Bannwarth and S. Grimme, J. Chem. Phys., 2017,
     147, 034112. DOI: 10.1063/1.4993215
   * E. Caldeweyher, S. Ehlert, A. Hansen, H. Neugebauer, S. Spicher,
     C. Bannwarth and S. Grimme, J. Chem. Phys., 2019, 150, 154122.
     DOI: 10.1063/1.5090222
   * E. Caldeweyher, J.-M. Mewes, S. Ehlert and S. Grimme, Phys. Chem. Chem. Phys.
     2020, 22, 8499-8512. DOI: 10.1039/D0CP00502A
   
   for sTDA-xTB:
   * S. Grimme and C. Bannwarth, J. Chem. Phys., 2016, 145, 054103.
     DOI: 10.1063/1.4959605
   
   in the mass-spec context:
   * V. Asgeirsson, C. Bauer and S. Grimme, Chem. Sci., 2017, 8, 4879.
     DOI: 10.1039/c7sc00601b
   * J. Koopman and S. Grimme, ACS Omega 2019, 4, 12, 15120-15133.
     DOI: 10.1021/acsomega.9b02011
   
   for metadynamics refer to:
   * S. Grimme, J. Chem. Theory Comput., 2019, 155, 2847-2862
     DOI: 10.1021/acs.jctc.9b00143
   
   for SPH calculations refer to:
   * S. Spicher and S. Grimme, J. Chem. Theory Comput., 2021, 17, 1701-1714
     DOI: 10.1021/acs.jctc.0c01306
   
   with help from (in alphabetical order)
   P. Atkinson, C. Bannwarth, F. Bohle, G. Brandenburg, E. Caldeweyher
   M. Checinski, S. Dohm, S. Ehlert, S. Ehrlich, I. Gerasimov, C. Hölzer
   A. Katbashev, J. Koopman, C. Lavigne, S. Lehtola, F. März, M. Müller,
   F. Musil, H. Neugebauer, J. Pisarek, C. Plett, P. Pracht, F. Pultar,
   J. Seibert, P. Shushkov, S. Spicher, M. Stahn, M. Steiner, T. Strunk,
   J. Stückrath, T. Rose, and J. Unsleber
   
 * started run on 2023/03/09 at 13:52:03.471     

           -------------------------------------------------
          |                Calculation Setup                |
           -------------------------------------------------

          program call               : /N/u/schandy/BigRed3/bin/xtb-6.5.1/bin/xtb 1n2w.xyz --alpb water
          hostname                   : nid00004
          coordinate file            : 1n2w.xyz
          omp threads                :                    10

   ID    Z sym.   atoms
    1    8 O      1, 4, 6, 11, 30-32, 35, 37, 45, 63-65, 68, 70, 75, 93-95,
                  98, 100, 108, 126-128, 131, 133, 158-160, 163, 165,
                  190-192, 195, 197, 202, 205, 222-224, 227, 229, 234, 237,
                  254-256, 259, 261, 269, 275, 288-290, 293, 295, 303,
                  321-323, 326, 328, 333, 351-353, 356, 358, 366, 384, 387,
                  389, 394, 413-415, 418, 420, 428, 446-448, 451, 453, 458,
                  476-478, 481, 483, 491, 509-511, 514, 516, 541-543, 546,
                  548, 573-575, 578, 580, 585, 588, 605-607, 610, 612, 617,
                  620, 637-639, 642, 644, 652, 658, 671-673, 676, 678, 686,
                  704-706, 709, 711, 716, 734-736, 739, 741, 749
    2    6 C      2, 3, 5, 7, 8, 10, 13, 15, 16, 33, 34, 36, 38, 39, 41, 43,
                  44, 47, 50, 66, 67, 69, 71, 72, 74, 77, 79, 80, 96, 97, 99,
                  101, 102, 104, 106, 107, 110, 113, 129, 130, 132, 134, 135,
                  137, 139, 140, 143, 145, 161, 162, 164, 166, 167, 169, 171,
                  172, 175, 177, 193, 194, 196, 198, 199, 201, 204, 206-208,
                  225, 226, 228, 230, 231, 233, 236, 238-240, 257, 258, 260,
                  262, 263, 265, 267, 268, 271, 274, 291, 292, 294, 296, 297,
                  299, 301, 302, 305, 308, 324, 325, 327, 329, 330, 332, 335,
                  337, 338, 354, 355, 357, 359, 360, 362, 364, 365, 368, 371,
                  385, 386, 388, 390, 391, 393, 396, 398, 399, 416, 417, 419,
                  421, 422, 424, 426, 427, 430, 433, 449, 450, 452, 454, 455,
                  457, 460, 462, 463, 479, 480, 482, 484, 485, 487, 489, 490,
                  493, 496, 512, 513, 515, 517, 518, 520, 522, 523, 526, 528,
                  544, 545, 547, 549, 550, 552, 554, 555, 558, 560, 576, 577,
                  579, 581, 582, 584, 587, 589-591, 608, 609, 611, 613, 614,
                  616, 619, 621-623, 640, 641, 643, 645, 646, 648, 650, 651,
                  654, 657, 674, 675, 677, 679, 680, 682, 684, 685, 688, 691,
                  707, 708, 710, 712, 713, 715, 718, 720, 721, 737, 738, 740,
                  742, 743, 745, 747, 748, 751, 754
    3    7 N      9, 12, 14, 40, 42, 46, 48, 49, 73, 76, 78, 103, 105, 109,
                  111, 112, 136, 138, 141, 142, 144, 168, 170, 173, 174, 176,
                  200, 203, 232, 235, 264, 266, 270, 272, 273, 298, 300, 304,
                  306, 307, 331, 334, 336, 361, 363, 367, 369, 370, 392, 395,
                  397, 423, 425, 429, 431, 432, 456, 459, 461, 486, 488, 492,
                  494, 495, 519, 521, 524, 525, 527, 551, 553, 556, 557, 559,
                  583, 586, 615, 618, 647, 649, 653, 655, 656, 681, 683, 687,
                  689, 690, 714, 717, 719, 744, 746, 750, 752, 753
    4    1 H      17-28, 51-61, 81-91, 114-124, 146-156, 178-188, 209-220,
                  241-252, 276-286, 309-319, 339-349, 372-383, 400-411,
                  434-444, 464-474, 497-507, 529-539, 561-571, 592-603,
                  624-635, 659-669, 692-702, 722-732, 755-788
    5   15 P      29, 62, 92, 125, 157, 189, 221, 253, 287, 320, 350, 412,
                  445, 475, 508, 540, 572, 604, 636, 670, 703, 733

molecular fragmentation (1/2 indicates fragments):
111111111111111111111111111111111111111111111111111111111111111111111111
111111111111111111111111111111111111111111111111111111111111111111111111
111111111111111111111111111111111111111111111111111111111111111111111111
111111111111111111111111111111111111111111111111111111111111111111111111
111111111111111111111111111111111111111111111111111111111111111111111111
111111111111111111111112222222222222222222222222222222222222222222222222
222222222222222222222222222222222222222222222222222222222222222222222222
222222222222222222222222222222222222222222222222222222222222222222222222
222222222222222222222222222222222222222222222222222222222222222222222222
222222222222222222222222222222222222222222222222222222222222222222222222
22222222222222222222222222222222222222222222222222222222211111111111
# atoms in fragment 1/2:   394   394
 fragment masses (1/2) :     3702.41     3702.41
CMA distance (Bohr)    :   2.737
constraining FC (au)   :  0.0500

           -------------------------------------------------
          |                 G F N 2 - x T B                 |
           -------------------------------------------------

        Reference                      10.1021/acs.jctc.8b01176
      * Hamiltonian:
        H0-scaling (s, p, d)           1.850000    2.230000    2.230000
        zeta-weighting                 0.500000
      * Dispersion:
        s8                             2.700000
        a1                             0.520000
        a2                             5.000000
        s9                             5.000000
      * Repulsion:
        kExp                           1.500000    1.000000
        rExp                           1.000000
      * Coulomb:
        alpha                          2.000000
        third order                    shell-resolved
        anisotropic                    true
        a3                             3.000000
        a5                             4.000000
        cn-shift                       1.200000
        cn-exp                         4.000000
        max-rad                        5.000000

      * Solvation model:               ALPB
        Solvent                        water
        Parameter file                 internal GFN2-xTB/ALPB
        Dielectric constant                8.0200E+01
        Reference state                gsolv [1 M gas/solution]
        Free energy shift                  1.0808E-03 Eh       6.7819E-01 kcal/mol
        Temperature                        2.9815E+02 K
        Density                            1.0000E+00 kg/L
        Solvent mass                       1.8000E+01 g/mol
        Interaction kernel             P16
        Born radius scaling (c1)           1.4744E+00
        Born radii integrator          GBOBC
        Born offset                        0.0000E+00 a0       0.0000E+00 AA
        H-bond correction              true
        Ion screening                  false
        Surface tension                    1.0000E-05 Eh       1.5569E+01 dyn/cm
        Grid points                               230 per atom

          ...................................................
          :                      SETUP                      :
          :.................................................:
          :  # basis functions                2402          :
          :  # atomic orbitals                2380          :
          :  # shells                         1304          :
          :  # electrons                      2672          :
          :  max. iterations                   250          :
          :  Hamiltonian                  GFN2-xTB          :
          :  restarted?                      false          :
          :  GBSA solvation                   true          :
          :  PC potential                    false          :
          :  electronic temp.          300.0000000     K    :
          :  accuracy                    1.0000000          :
          :  -> integral cutoff          0.2500000E+02      :
          :  -> integral neglect         0.1000000E-07      :
          :  -> SCF convergence          0.1000000E-05 Eh   :
          :  -> wf. convergence          0.1000000E-03 e    :
          :  Broyden damping             0.4000000          :
          ...................................................

 iter      E             dE          RMSdq      gap      omega  full diag
   1  -1581.1851426 -0.158119E+04  0.599E+00    2.58       0.0  T
   2  -1584.9193351 -0.373419E+01  0.346E+00    1.85       1.0  T
   3  -1585.1445295 -0.225194E+00  0.149E+00    2.50       1.0  T
   4  -1585.4975314 -0.353002E+00  0.652E-01    2.06       1.0  T
   5  -1585.6179035 -0.120372E+00  0.317E-01    2.21       1.0  T
   6  -1585.6350859 -0.171824E-01  0.150E-01    2.14       1.0  T
   7  -1585.6400507 -0.496483E-02  0.770E-02    2.18       1.0  T
   8  -1585.6409158 -0.865095E-03  0.463E-02    2.15       1.0  T
   9  -1585.6413334 -0.417623E-03  0.200E-02    2.16       1.0  T
  10  -1585.6414136 -0.801345E-04  0.889E-03    2.15       1.0  T
  11  -1585.6414353 -0.217712E-04  0.472E-03    2.15       1.0  T
  12  -1585.6414394 -0.403803E-05  0.201E-03    2.15       1.8  T
  13  -1585.6414402 -0.844288E-06  0.110E-03    2.15       3.2  T
  14  -1585.6414405 -0.269599E-06  0.637E-04    2.15       5.6  T
  15  -1585.6414406 -0.110129E-06  0.343E-04    2.15      10.4  T

   *** convergence criteria satisfied after 15 iterations ***

         #    Occupation            Energy/Eh            Energy/eV
      -------------------------------------------------------------
         1        2.0000           -0.7784894             -21.1838
       ...           ...                  ...                  ...
      1330        2.0000           -0.3796037             -10.3295
      1331        2.0000           -0.3789268             -10.3111
      1332        2.0000           -0.3770212             -10.2593
      1333        2.0000           -0.3763930             -10.2422
      1334        2.0000           -0.3754011             -10.2152
      1335        2.0000           -0.3733351             -10.1590
      1336        2.0000           -0.3696787             -10.0595 (HOMO)
      1337                         -0.2907173              -7.9108 (LUMO)
      1338                         -0.2856073              -7.7718
      1339                         -0.2791136              -7.5951
      1340                         -0.2741559              -7.4602
      1341                         -0.2734683              -7.4415
       ...                                ...                  ...
      2380                          1.5092198              41.0680
      -------------------------------------------------------------
                  HL-Gap            0.0789615 Eh            2.1487 eV
             Fermi-level           -0.3301980 Eh           -8.9851 eV

 SCC (total)                   0 d,  0 h,  0 min, 14.564 sec
 SCC setup                      ...        0 min,  0.086 sec (  0.587%)
 Dispersion                     ...        0 min,  0.309 sec (  2.123%)
 classical contributions        ...        0 min,  0.004 sec (  0.028%)
 integral evaluation            ...        0 min,  0.650 sec (  4.461%)
 iterations                     ...        0 min, 11.002 sec ( 75.543%)
 molecular gradient             ...        0 min,  2.401 sec ( 16.485%)
 printout                       ...        0 min,  0.112 sec (  0.772%)

         :::::::::::::::::::::::::::::::::::::::::::::::::::::
         ::                     SUMMARY                     ::
         :::::::::::::::::::::::::::::::::::::::::::::::::::::
         :: total energy           -1569.947738838588 Eh    ::
         :: total w/o Gsasa/hb     -1569.684246197645 Eh    ::
         :: gradient norm              0.972026836742 Eh/a0 ::
         :: HOMO-LUMO gap              2.148650438821 eV    ::
         ::.................................................::
         :: SCC energy             -1585.641440596428 Eh    ::
         :: -> isotropic ES            5.790914382033 Eh    ::
         :: -> anisotropic ES         -0.421229450219 Eh    ::
         :: -> anisotropic XC          0.273861851934 Eh    ::
         :: -> dispersion             -1.406290269597 Eh    ::
         :: -> Gsolv                  -1.202197601005 Eh    ::
         ::    -> Gelec               -0.938704960062 Eh    ::
         ::    -> Gsasa                0.064642424187 Eh    ::
         ::    -> Ghb                 -0.329215824829 Eh    ::
         ::    -> Gshift               0.001080759698 Eh    ::
         :: repulsion energy          15.562453126740 Eh    ::
         :: add. restraining           0.000000000000 Eh    ::
         :: total charge              -0.000000000000 e     ::
         :::::::::::::::::::::::::::::::::::::::::::::::::::::

           -------------------------------------------------
          |                Property Printout                |
           -------------------------------------------------

    * Orbital Energies and Occupations

         #    Occupation            Energy/Eh            Energy/eV
      -------------------------------------------------------------
         1        2.0000           -0.7784894             -21.1838
       ...           ...                  ...                  ...
      1324        2.0000           -0.3877516             -10.5513
      1325        2.0000           -0.3872021             -10.5363
      1326        2.0000           -0.3869441             -10.5293
      1327        2.0000           -0.3865117             -10.5175
      1328        2.0000           -0.3839141             -10.4468
      1329        2.0000           -0.3826172             -10.4115
      1330        2.0000           -0.3796037             -10.3295
      1331        2.0000           -0.3789268             -10.3111
      1332        2.0000           -0.3770212             -10.2593
      1333        2.0000           -0.3763930             -10.2422
      1334        2.0000           -0.3754011             -10.2152
      1335        2.0000           -0.3733351             -10.1590
      1336        2.0000           -0.3696787             -10.0595 (HOMO)
      1337                         -0.2907173              -7.9108 (LUMO)
      1338                         -0.2856073              -7.7718
      1339                         -0.2791136              -7.5951
      1340                         -0.2741559              -7.4602
      1341                         -0.2734683              -7.4415
      1342                         -0.2720043              -7.4016
      1343                         -0.2674933              -7.2789
      1344                         -0.2668460              -7.2613
      1345                         -0.2658616              -7.2345
      1346                         -0.2653632              -7.2209
      1347                         -0.2646517              -7.2015
       ...                                ...                  ...
      2380                          1.5092198              41.0680
      -------------------------------------------------------------
                  HL-Gap            0.0789615 Eh            2.1487 eV
             Fermi-level           -0.3301980 Eh           -8.9851 eV

 * generalized Born model for continuum solvation

     #   Z     Born rad/Å   SASA/Å²    H-bond
     1   8 O        2.022     7.408    -0.001
     2   6 C        2.320     0.961    -0.000
     3   6 C        2.514     0.194    -0.000
     4   8 O        2.361     8.556    -0.001
     5   6 C        2.592     0.070    -0.000
     6   8 O        2.330     4.711    -0.001
     7   6 C        2.590     0.347    -0.000
     8   6 C        2.662     0.707    -0.000
     9   7 N        2.630     0.316    -0.000
    10   6 C        2.664     4.150    -0.000
    11   8 O        2.167    10.492    -0.001
    12   7 N        2.503     1.881    -0.000
    13   6 C        2.657     4.702    -0.000
    14   7 N        2.235     2.779    -0.000
    15   6 C        2.579     7.102    -0.001
    16   6 C        2.606     4.681    -0.000
    17   1 H        1.817    20.973    -0.035
    18   1 H        1.826    19.306    -0.032
    19   1 H        1.915    16.371    -0.027
    20   1 H        1.967     7.215    -0.012
    21   1 H        2.009     7.374    -0.012
    22   1 H        2.028     0.208    -0.000
    23   1 H        1.966     9.086    -0.015
    24   1 H        1.955     0.324    -0.001
    25   1 H        1.877    20.832    -0.035
    26   1 H        1.926    19.943    -0.033
    27   1 H        1.951     9.980    -0.017
    28   1 H        1.705    26.134    -0.044
    29  15 P        2.752     8.384    -0.002
    30   8 O        2.062    15.027    -0.002
    31   8 O        2.066    27.894    -0.003
    32   8 O        2.294     1.856    -0.000
    33   6 C        2.445     0.260    -0.000
    34   6 C        2.583     0.075    -0.000
    35   8 O        2.451     2.903    -0.000
    36   6 C        2.631     0.146    -0.000
    37   8 O        2.374     4.605    -0.001
    38   6 C        2.641     0.146    -0.000
    39   6 C        2.781     0.174    -0.000
    40   7 N        2.866     0.000    -0.000
    41   6 C        2.699     1.807    -0.000
    42   7 N        2.494     9.579    -0.001
    43   6 C        3.088     0.006    -0.000
    44   6 C        2.751     0.032    -0.000
    45   8 O        2.236     7.139    -0.001
    46   7 N        2.654     0.000     0.000
    47   6 C        2.830     0.000    -0.000
    48   7 N        2.307     0.373    -0.000
    49   7 N        2.618     2.145    -0.000
    50   6 C        3.217     0.018    -0.000
    51   1 H        1.902     9.841    -0.017
    52   1 H        1.883    12.742    -0.021
    53   1 H        1.968    13.632    -0.023
    54   1 H        1.991    10.249    -0.017
    55   1 H        2.025     8.782    -0.015
    56   1 H        2.056     1.599    -0.003
    57   1 H        2.095     2.918    -0.005
    58   1 H        1.968     9.579    -0.016
    59   1 H        2.310     0.000     0.000
    60   1 H        2.008     0.913    -0.002
    61   1 H        1.919    16.238    -0.027
    62  15 P        2.788     5.785    -0.001
    63   8 O        2.067    13.411    -0.001
    64   8 O        2.101    23.117    -0.003
    65   8 O        2.330     0.404    -0.000
    66   6 C        2.478     0.288    -0.000
    67   6 C        2.575     0.228    -0.000
    68   8 O        2.459     3.339    -0.000
    69   6 C        2.649     0.174    -0.000
    70   8 O        2.369     3.918    -0.000
    71   6 C        2.626     0.581    -0.000
    72   6 C        2.784     0.050    -0.000
    73   7 N        2.774     0.000     0.000
    74   6 C        2.796     0.000    -0.000
    75   8 O        2.225     6.220    -0.001
    76   7 N        2.686     0.000     0.000
    77   6 C        2.898     0.004    -0.000
    78   7 N        2.355     0.091    -0.000
    79   6 C        2.792     0.871    -0.000
    80   6 C        2.778     0.839    -0.000
    81   1 H        1.942     5.209    -0.009
    82   1 H        1.903    14.113    -0.024
    83   1 H        1.931    17.513    -0.029
    84   1 H        2.009     8.176    -0.014
    85   1 H        2.021     7.089    -0.012
    86   1 H        2.015     3.043    -0.005
    87   1 H        2.056     2.727    -0.005
    88   1 H        2.042     0.393    -0.001
    89   1 H        1.948    12.198    -0.020
    90   1 H        2.045    10.431    -0.018
    91   1 H        2.067     2.388    -0.004
    92  15 P        2.772     7.430    -0.001
    93   8 O        2.074    26.809    -0.003
    94   8 O        2.085    10.413    -0.001
    95   8 O        2.328     2.044    -0.000
    96   6 C        2.464     0.403    -0.000
    97   6 C        2.614     0.018    -0.000
    98   8 O        2.496     0.042    -0.000
    99   6 C        2.637     0.091    -0.000
   100   8 O        2.379     4.117    -0.000
   101   6 C        2.627     0.340    -0.000
   102   6 C        2.803     0.015    -0.000
   103   7 N        2.911     0.000     0.000
   104   6 C        2.724     2.477    -0.000
   105   7 N        2.520    10.713    -0.001
   106   6 C        3.209     0.007    -0.000
   107   6 C        2.845     0.003    -0.000
   108   8 O        2.257     6.390    -0.001
   109   7 N        2.757     0.000     0.000
   110   6 C        2.960     0.000    -0.000
   111   7 N        2.388     0.177    -0.000
   112   7 N        2.780     0.733    -0.000
   113   6 C        3.347     0.000     0.000
   114   1 H        1.925     9.315    -0.016
   115   1 H        1.881    16.420    -0.028
   116   1 H        2.010    10.485    -0.018
   117   1 H        1.974    10.563    -0.018
   118   1 H        1.997    10.010    -0.017
   119   1 H        2.046     2.970    -0.005
   120   1 H        2.138     1.619    -0.003
   121   1 H        1.974    13.068    -0.022
   122   1 H        2.248     0.000     0.000
   123   1 H        2.025     5.813    -0.010
   124   1 H        1.985     9.102    -0.015
   125  15 P        2.802     5.137    -0.001
   126   8 O        2.077    27.163    -0.003
   127   8 O        2.112     8.902    -0.001
   128   8 O        2.387     0.001    -0.000
   129   6 C        2.502     0.390    -0.000
   130   6 C        2.599     0.169    -0.000
   131   8 O        2.483     1.032    -0.000
   132   6 C        2.661     0.223    -0.000
   133   8 O        2.362     4.899    -0.001
   134   6 C        2.678     0.105    -0.000
   135   6 C        2.815     0.007    -0.000
   136   7 N        2.989     0.000     0.000
   137   6 C        2.784     2.177    -0.000
   138   7 N        2.572     7.885    -0.001
   139   6 C        3.324     0.001    -0.000
   140   6 C        3.010     0.000     0.000
   141   7 N        2.329     0.441    -0.000
   142   7 N        2.722     0.000     0.000
   143   6 C        2.858     0.071    -0.000
   144   7 N        2.626     2.561    -0.000
   145   6 C        3.420     0.000     0.000
   146   1 H        1.919     8.776    -0.015
   147   1 H        1.912    13.622    -0.023
   148   1 H        1.943    17.653    -0.030
   149   1 H        2.010     5.017    -0.008
   150   1 H        2.052     7.634    -0.013
   151   1 H        2.103     0.160    -0.000
   152   1 H        2.077     3.048    -0.005
   153   1 H        2.041     1.961    -0.003
   154   1 H        1.983     2.488    -0.004
   155   1 H        1.943    14.091    -0.024
   156   1 H        2.095     4.129    -0.007
   157  15 P        2.788     7.361    -0.001
   158   8 O        2.072    28.305    -0.003
   159   8 O        2.102    12.073    -0.001
   160   8 O        2.346     0.516    -0.000
   161   6 C        2.483     0.387    -0.000
   162   6 C        2.601     0.084    -0.000
   163   8 O        2.439     6.558    -0.001
   164   6 C        2.655     0.184    -0.000
   165   8 O        2.392     3.584    -0.000
   166   6 C        2.662     0.039    -0.000
   167   6 C        2.810     0.172    -0.000
   168   7 N        2.966     0.000    -0.000
   169   6 C        2.805     0.101    -0.000
   170   7 N        2.585     4.758    -0.000
   171   6 C        3.373     0.000     0.000
   172   6 C        3.076     0.000     0.000
   173   7 N        2.377     0.061    -0.000
   174   7 N        2.745     0.000     0.000
   175   6 C        2.822     0.040    -0.000
   176   7 N        2.621     3.704    -0.000
   177   6 C        3.411     0.009    -0.000
   178   1 H        1.930     8.154    -0.014
   179   1 H        1.895    14.692    -0.025
   180   1 H        1.952    16.137    -0.027
   181   1 H        2.003     6.956    -0.012
   182   1 H        2.061     3.670    -0.006
   183   1 H        2.065     0.936    -0.002
   184   1 H        2.097     3.681    -0.006
   185   1 H        2.035     3.392    -0.006
   186   1 H        2.047     0.703    -0.001
   187   1 H        1.960    11.998    -0.020
   188   1 H        2.078     3.057    -0.005
   189  15 P        2.779    10.766    -0.002
   190   8 O        2.071    28.780    -0.003
   191   8 O        2.095    15.912    -0.002
   192   8 O        2.331     1.968    -0.000
   193   6 C        2.482     0.379    -0.000
   194   6 C        2.610     0.077    -0.000
   195   8 O        2.555     0.076    -0.000
   196   6 C        2.653     0.084    -0.000
   197   8 O        2.354     5.128    -0.001
   198   6 C        2.684     0.000     0.000
   199   6 C        2.808     0.001    -0.000
   200   7 N        2.874     0.000     0.000
   201   6 C        2.871     0.000     0.000
   202   8 O        2.301     1.472    -0.000
   203   7 N        2.638     0.000     0.000
   204   6 C        2.770     0.003    -0.000
   205   8 O        2.235     6.232    -0.001
   206   6 C        2.833     0.000    -0.000
   207   6 C        2.460     2.282    -0.000
   208   6 C        2.868     0.003    -0.000
   209   1 H        1.953     8.099    -0.014
   210   1 H        1.889    16.193    -0.027
   211   1 H        1.987    13.516    -0.023
   212   1 H        1.995     7.871    -0.013
   213   1 H        2.096     0.904    -0.002
   214   1 H        2.134     0.000     0.000
   215   1 H        2.078     4.651    -0.008
   216   1 H        2.324     0.000     0.000
   217   1 H        1.922     9.744    -0.016
   218   1 H        1.886    17.764    -0.030
   219   1 H        1.931    11.421    -0.019
   220   1 H        2.083     3.550    -0.006
   221  15 P        2.790     9.844    -0.002
   222   8 O        2.079    27.222    -0.003
   223   8 O        2.103    15.526    -0.002
   224   8 O        2.354     0.799    -0.000
   225   6 C        2.481     0.316    -0.000
   226   6 C        2.594     0.133    -0.000
   227   8 O        2.479     2.477    -0.000
   228   6 C        2.640     0.326    -0.000
   229   8 O        2.406     2.732    -0.000
   230   6 C        2.634     0.699    -0.000
   231   6 C        2.800     0.069    -0.000
   232   7 N        2.789     0.000     0.000
   233   6 C        2.779     0.000     0.000
   234   8 O        2.269     2.611    -0.000
   235   7 N        2.620     0.000     0.000
   236   6 C        2.807     0.000     0.000
   237   8 O        2.244     5.384    -0.001
   238   6 C        2.879     0.000     0.000
   239   6 C        2.492     1.743    -0.000
   240   6 C        2.860     0.000     0.000
   241   1 H        1.933     9.826    -0.017
   242   1 H        1.907    13.196    -0.022
   243   1 H        1.954    16.703    -0.028
   244   1 H        1.945    10.544    -0.018
   245   1 H        2.021     2.688    -0.005
   246   1 H        2.009     1.915    -0.003
   247   1 H        2.059     3.575    -0.006
   248   1 H        2.368     0.000    -0.000
   249   1 H        1.928     7.691    -0.013
   250   1 H        1.980     3.706    -0.006
   251   1 H        1.928     6.252    -0.011
   252   1 H        2.087     0.058    -0.000
   253  15 P        2.776     9.225    -0.002
   254   8 O        2.084    26.851    -0.003
   255   8 O        2.080    14.818    -0.002
   256   8 O        2.311     1.140    -0.000
   257   6 C        2.479     0.370    -0.000
   258   6 C        2.613     0.074    -0.000
   259   8 O        2.462     0.044    -0.000
   260   6 C        2.638     0.026    -0.000
   261   8 O        2.410     0.397    -0.000
   262   6 C        2.568     1.075    -0.000
   263   6 C        2.752     0.003    -0.000
   264   7 N        2.821     0.051    -0.000
   265   6 C        2.787     0.000     0.000
   266   7 N        2.558     0.002    -0.000
   267   6 C        3.001     2.053    -0.000
   268   6 C        2.635     4.107    -0.000
   269   8 O        2.126    24.065    -0.003
   270   7 N        2.473     2.279    -0.000
   271   6 C        2.690     4.038    -0.000
   272   7 N        2.202     2.454    -0.000
   273   7 N        2.535     3.422    -0.000
   274   6 C        3.118     2.489    -0.000
   275   8 O        2.305     0.442    -0.000
   276   1 H        1.940     6.828    -0.011
   277   1 H        1.895    11.312    -0.019
   278   1 H        1.999    11.403    -0.019
   279   1 H        1.992     8.558    -0.014
   280   1 H        1.979     8.906    -0.015
   281   1 H        1.947    10.281    -0.017
   282   1 H        2.092     2.438    -0.004
   283   1 H        2.045     0.513    -0.001
   284   1 H        1.963    12.340    -0.021
   285   1 H        1.870    18.572    -0.031
   286   1 H        1.859    20.726    -0.035
   287  15 P        2.767     8.121    -0.002
   288   8 O        2.077    25.659    -0.003
   289   8 O        2.089    13.681    -0.002
   290   8 O        2.264     7.430    -0.001
   291   6 C        2.439     0.307    -0.000
   292   6 C        2.559     0.203    -0.000
   293   8 O        2.445     4.951    -0.001
   294   6 C        2.617     0.312    -0.000
   295   8 O        2.358     4.004    -0.000
   296   6 C        2.631     0.322    -0.000
   297   6 C        2.761     0.166    -0.000
   298   7 N        2.869     0.013    -0.000
   299   6 C        2.699     1.804    -0.000
   300   7 N        2.479    11.797    -0.001
   301   6 C        3.084     0.042    -0.000
   302   6 C        2.759     0.062    -0.000
   303   8 O        2.213     9.857    -0.001
   304   7 N        2.726     0.000     0.000
   305   6 C        2.952     0.000    -0.000
   306   7 N        2.393     0.216    -0.000
   307   7 N        2.719     0.485    -0.000
   308   6 C        3.226     0.000     0.000
   309   1 H        1.867    16.168    -0.027
   310   1 H        1.926     4.033    -0.007
   311   1 H        1.929    16.104    -0.027
   312   1 H        1.961    11.132    -0.019
   313   1 H        2.013     9.203    -0.015
   314   1 H        2.052     0.556    -0.001
   315   1 H        2.050     3.160    -0.005
   316   1 H        1.982     5.770    -0.010
   317   1 H        2.396     0.000     0.000
   318   1 H        2.060     0.266    -0.000
   319   1 H        2.001     7.421    -0.012
   320  15 P        2.775     8.113    -0.002
   321   8 O        2.073    15.688    -0.002
   322   8 O        2.092    24.798    -0.003
   323   8 O        2.367     0.125    -0.000
   324   6 C        2.501     0.375    -0.000
   325   6 C        2.593     0.229    -0.000
   326   8 O        2.488     1.443    -0.000
   327   6 C        2.666     0.018    -0.000
   328   8 O        2.375     4.091    -0.000
   329   6 C        2.639     0.169    -0.000
   330   6 C        2.777     0.000    -0.000
   331   7 N        2.835     0.000     0.000
   332   6 C        2.842     0.000     0.000
   333   8 O        2.308     3.523    -0.000
   334   7 N        2.676     0.000     0.000
   335   6 C        2.818     0.270    -0.000
   336   7 N        2.279     0.651    -0.000
   337   6 C        2.728     2.716    -0.000
   338   6 C        2.789     1.006    -0.000
   339   1 H        1.938     6.231    -0.010
   340   1 H        1.914    12.583    -0.021
   341   1 H        1.942    17.696    -0.030
   342   1 H        2.021     3.741    -0.006
   343   1 H        2.052     4.953    -0.008
   344   1 H        2.057     0.033    -0.000
   345   1 H        2.028     6.383    -0.011
   346   1 H        1.972     1.016    -0.002
   347   1 H        1.901    17.491    -0.029
   348   1 H        2.004    11.196    -0.019
   349   1 H        2.088     1.359    -0.002
   350  15 P        2.766     6.869    -0.001
   351   8 O        2.072    27.216    -0.003
   352   8 O        2.087    10.204    -0.001
   353   8 O        2.310     0.698    -0.000
   354   6 C        2.444     0.719    -0.000
   355   6 C        2.524     0.242    -0.000
   356   8 O        2.393     7.044    -0.001
   357   6 C        2.467     0.919    -0.000
   358   8 O        2.051    18.662    -0.002
   359   6 C        2.511     0.734    -0.000
   360   6 C        2.650     0.383    -0.000
   361   7 N        2.741     0.185    -0.000
   362   6 C        2.687     4.514    -0.000
   363   7 N        2.480    11.168    -0.001
   364   6 C        2.979     3.110    -0.000
   365   6 C        2.690     4.494    -0.000
   366   8 O        2.200    10.131    -0.001
   367   7 N        2.560     1.565    -0.000
   368   6 C        2.687     4.520    -0.000
   369   7 N        2.232     4.068    -0.000
   370   7 N        2.491     8.577    -0.001
   371   6 C        3.032     2.740    -0.000
   372   1 H        1.919     8.037    -0.013
   373   1 H        1.873    16.102    -0.027
   374   1 H        1.920    15.915    -0.027
   375   1 H        1.904    14.621    -0.025
   376   1 H        1.773    15.078    -0.025
   377   1 H        1.987     6.907    -0.012
   378   1 H        1.898    19.195    -0.032
   379   1 H        1.966    10.981    -0.018
   380   1 H        1.984     7.218    -0.012
   381   1 H        2.175     2.647    -0.004
   382   1 H        1.931     6.063    -0.010
   383   1 H        1.869    23.887    -0.040
   384   8 O        2.013    20.240    -0.002
   385   6 C        2.317     1.823    -0.000
   386   6 C        2.524     0.155    -0.000
   387   8 O        2.395     7.632    -0.001
   388   6 C        2.601     0.024    -0.000
   389   8 O        2.352     2.875    -0.000
   390   6 C        2.603     0.000    -0.000
   391   6 C        2.688     0.256    -0.000
   392   7 N        2.655     0.416    -0.000
   393   6 C        2.707     3.782    -0.000
   394   8 O        2.187     8.489    -0.001
   395   7 N        2.518     1.918    -0.000
   396   6 C        2.677     3.383    -0.000
   397   7 N        2.229     3.932    -0.000
   398   6 C        2.599     6.955    -0.001
   399   6 C        2.617     4.406    -0.000
   400   1 H        1.818    21.774    -0.037
   401   1 H        1.829    19.884    -0.033
   402   1 H        1.946    12.995    -0.022
   403   1 H        1.967     7.029    -0.012
   404   1 H        2.022     5.941    -0.010
   405   1 H        2.080     0.000     0.000
   406   1 H        2.003     6.794    -0.011
   407   1 H        1.930     3.332    -0.006
   408   1 H        1.875    19.577    -0.033
   409   1 H        1.936    19.111    -0.032
   410   1 H        1.956    10.675    -0.018
   411   1 H        1.778     9.224    -0.015
   412  15 P        2.766     9.507    -0.002
   413   8 O        2.069    15.902    -0.002
   414   8 O        2.087    24.397    -0.003
   415   8 O        2.336     1.410    -0.000
   416   6 C        2.453     0.486    -0.000
   417   6 C        2.562     0.187    -0.000
   418   8 O        2.439     3.066    -0.000
   419   6 C        2.623     0.253    -0.000
   420   8 O        2.385     2.565    -0.000
   421   6 C        2.609     0.387    -0.000
   422   6 C        2.750     0.157    -0.000
   423   7 N        2.846     0.000     0.000
   424   6 C        2.719     1.254    -0.000
   425   7 N        2.476    10.088    -0.001
   426   6 C        3.096     0.000    -0.000
   427   6 C        2.787     0.001    -0.000
   428   8 O        2.250     6.614    -0.001
   429   7 N        2.672     0.000     0.000
   430   6 C        2.839     0.000    -0.000
   431   7 N        2.324     0.213    -0.000
   432   7 N        2.635     2.335    -0.000
   433   6 C        3.226     0.001    -0.000
   434   1 H        1.923     8.549    -0.014
   435   1 H        1.871    13.987    -0.023
   436   1 H        1.943    15.841    -0.027
   437   1 H        1.973    11.011    -0.018
   438   1 H        2.013     8.272    -0.014
   439   1 H        2.021     3.130    -0.005
   440   1 H        2.062     3.021    -0.005
   441   1 H        1.988     8.175    -0.014
   442   1 H        2.341     0.000     0.000
   443   1 H        2.028     0.878    -0.001
   444   1 H        1.934    13.608    -0.023
   445  15 P        2.782     6.041    -0.001
   446   8 O        2.080     9.940    -0.001
   447   8 O        2.090    25.053    -0.003
   448   8 O        2.341     0.123    -0.000
   449   6 C        2.475     0.291    -0.000
   450   6 C        2.581     0.144    -0.000
   451   8 O        2.456     1.863    -0.000
   452   6 C        2.647     0.181    -0.000
   453   8 O        2.366     3.606    -0.000
   454   6 C        2.614     0.569    -0.000
   455   6 C        2.748     0.046    -0.000
   456   7 N        2.723     0.000     0.000
   457   6 C        2.809     0.000     0.000
   458   8 O        2.258     6.154    -0.001
   459   7 N        2.647     0.000     0.000
   460   6 C        2.831     0.388    -0.000
   461   7 N        2.317     1.281    -0.000
   462   6 C        2.752     3.161    -0.000
   463   6 C        2.754     1.654    -0.000
   464   1 H        1.911    10.277    -0.017
   465   1 H        1.902    12.541    -0.021
   466   1 H        1.951    16.752    -0.028
   467   1 H        1.992     9.080    -0.015
   468   1 H        2.004     8.369    -0.014
   469   1 H        1.995     3.206    -0.005
   470   1 H        2.034     2.267    -0.004
   471   1 H        2.020     0.482    -0.001
   472   1 H        1.938    15.537    -0.026
   473   1 H        2.019    10.235    -0.017
   474   1 H        2.057     1.942    -0.003
   475  15 P        2.773     5.951    -0.001
   476   8 O        2.061    13.495    -0.001
   477   8 O        2.095    23.884    -0.003
   478   8 O        2.325     0.318    -0.000
   479   6 C        2.449     0.523    -0.000
   480   6 C        2.594     0.081    -0.000
   481   8 O        2.476     2.509    -0.000
   482   6 C        2.628     0.215    -0.000
   483   8 O        2.392     3.423    -0.000
   484   6 C        2.606     0.798    -0.000
   485   6 C        2.800     0.088    -0.000
   486   7 N        2.878    -0.009     0.000
   487   6 C        2.716     3.653    -0.000
   488   7 N        2.540     8.922    -0.001
   489   6 C        3.140     0.016    -0.000
   490   6 C        2.823     0.021    -0.000
   491   8 O        2.268     5.091    -0.001
   492   7 N        2.679     0.000     0.000
   493   6 C        2.887     0.008    -0.000
   494   7 N        2.319     1.449    -0.000
   495   7 N        2.686     1.708    -0.000
   496   6 C        3.261     0.079    -0.000
   497   1 H        1.904     9.529    -0.016
   498   1 H        1.878    16.070    -0.027
   499   1 H        1.959    14.442    -0.024
   500   1 H        1.954    12.947    -0.022
   501   1 H        1.995     9.751    -0.016
   502   1 H        2.018     4.166    -0.007
   503   1 H        2.161     0.954    -0.002
   504   1 H        1.982     9.639    -0.016
   505   1 H        2.194     0.000     0.000
   506   1 H        1.951     9.279    -0.016
   507   1 H        1.959     9.277    -0.016
   508  15 P        2.793     3.988    -0.001
   509   8 O        2.076    12.021    -0.001
   510   8 O        2.103    22.149    -0.002
   511   8 O        2.364     0.005    -0.000
   512   6 C        2.480     0.459    -0.000
   513   6 C        2.584     0.175    -0.000
   514   8 O        2.470     0.571    -0.000
   515   6 C        2.633     0.302    -0.000
   516   8 O        2.332     4.830    -0.001
   517   6 C        2.635     0.286    -0.000
   518   6 C        2.810     0.003    -0.000
   519   7 N        2.945     0.001    -0.000
   520   6 C        2.776     2.125    -0.000
   521   7 N        2.541     8.291    -0.001
   522   6 C        3.278     0.000    -0.000
   523   6 C        2.961     0.000    -0.000
   524   7 N        2.346     0.681    -0.000
   525   7 N        2.727     0.000     0.000
   526   6 C        2.780     0.207    -0.000
   527   7 N        2.592     2.913    -0.000
   528   6 C        3.378     0.000     0.000
   529   1 H        1.911     8.991    -0.015
   530   1 H        1.903    13.613    -0.023
   531   1 H        1.928    17.363    -0.029
   532   1 H        1.992     8.593    -0.014
   533   1 H        2.028     7.597    -0.013
   534   1 H        2.030     1.430    -0.002
   535   1 H        2.102     2.414    -0.004
   536   1 H        2.026     3.398    -0.006
   537   1 H        2.030     0.609    -0.001
   538   1 H        1.948    13.279    -0.022
   539   1 H        2.059     6.106    -0.010
   540  15 P        2.776     5.992    -0.001
   541   8 O        2.072    12.018    -0.001
   542   8 O        2.105    22.296    -0.002
   543   8 O        2.325     0.610    -0.000
   544   6 C        2.467     0.350    -0.000
   545   6 C        2.571     0.111    -0.000
   546   8 O        2.442     4.590    -0.001
   547   6 C        2.646     0.075    -0.000
   548   8 O        2.354     4.202    -0.000
   549   6 C        2.644     0.080    -0.000
   550   6 C        2.782     0.295    -0.000
   551   7 N        2.927     0.000    -0.000
   552   6 C        2.769     0.348    -0.000
   553   7 N        2.548     7.828    -0.001
   554   6 C        3.295     0.001    -0.000
   555   6 C        3.001     0.000    -0.000
   556   7 N        2.360     0.188    -0.000
   557   7 N        2.737     0.000     0.000
   558   6 C        2.835     0.026    -0.000
   559   7 N        2.632     2.647    -0.000
   560   6 C        3.352     0.003    -0.000
   561   1 H        1.908    11.397    -0.019
   562   1 H        1.897    13.926    -0.023
   563   1 H        1.938    16.092    -0.027
   564   1 H        1.981     9.162    -0.015
   565   1 H        2.020     5.171    -0.009
   566   1 H        2.046     0.361    -0.001
   567   1 H        2.046     5.732    -0.010
   568   1 H        2.011     5.360    -0.009
   569   1 H        2.014     1.817    -0.003
   570   1 H        1.954    14.093    -0.024
   571   1 H        2.111     1.862    -0.003
   572  15 P        2.782     6.802    -0.001
   573   8 O        2.073    11.667    -0.001
   574   8 O        2.096    25.211    -0.003
   575   8 O        2.325     2.041    -0.000
   576   6 C        2.461     0.425    -0.000
   577   6 C        2.587     0.047    -0.000
   578   8 O        2.474     2.244    -0.000
   579   6 C        2.647     0.024    -0.000
   580   8 O        2.360     3.329    -0.000
   581   6 C        2.674     0.000     0.000
   582   6 C        2.796     0.042    -0.000
   583   7 N        2.816     0.000    -0.000
   584   6 C        2.810     0.000    -0.000
   585   8 O        2.258     4.246    -0.000
   586   7 N        2.617     0.000     0.000
   587   6 C        2.805     0.000     0.000
   588   8 O        2.254     4.458    -0.000
   589   6 C        2.820     0.000     0.000
   590   6 C        2.438     2.271    -0.000
   591   6 C        2.856     0.000     0.000
   592   1 H        1.924     9.988    -0.017
   593   1 H        1.886    15.287    -0.026
   594   1 H        1.988    13.473    -0.023
   595   1 H        2.013     8.522    -0.014
   596   1 H        2.125     0.185    -0.000
   597   1 H        2.125     0.000     0.000
   598   1 H        2.057     8.033    -0.013
   599   1 H        2.328     0.000     0.000
   600   1 H        1.883    13.280    -0.022
   601   1 H        1.903    12.774    -0.021
   602   1 H        1.900    10.958    -0.018
   603   1 H        2.081     2.098    -0.004
   604  15 P        2.781     8.237    -0.002
   605   8 O        2.073    12.674    -0.001
   606   8 O        2.097    21.929    -0.002
   607   8 O        2.343     1.485    -0.000
   608   6 C        2.487     0.273    -0.000
   609   6 C        2.604     0.073    -0.000
   610   8 O        2.439     3.755    -0.000
   611   6 C        2.653     0.220    -0.000
   612   8 O        2.390     1.547    -0.000
   613   6 C        2.678     0.001    -0.000
   614   6 C        2.818     0.046    -0.000
   615   7 N        2.818     0.000     0.000
   616   6 C        2.809     0.000    -0.000
   617   8 O        2.258     2.268    -0.000
   618   7 N        2.595     0.000     0.000
   619   6 C        2.780     0.038    -0.000
   620   8 O        2.251     4.795    -0.001
   621   6 C        2.885     0.000     0.000
   622   6 C        2.488     1.811    -0.000
   623   6 C        2.880     0.000     0.000
   624   1 H        1.946     8.699    -0.015
   625   1 H        1.898    14.499    -0.024
   626   1 H        1.972    16.156    -0.027
   627   1 H        1.991    10.720    -0.018
   628   1 H        2.077     0.224    -0.000
   629   1 H        2.099     0.000    -0.000
   630   1 H        2.105     1.790    -0.003
   631   1 H        2.305     0.000     0.000
   632   1 H        1.948     5.520    -0.009
   633   1 H        1.920     9.488    -0.016
   634   1 H        1.917     9.485    -0.016
   635   1 H        2.100     0.107    -0.000
   636  15 P        2.790     5.736    -0.001
   637   8 O        2.068    22.983    -0.003
   638   8 O        2.135    13.497    -0.001
   639   8 O        2.279     6.363    -0.001
   640   6 C        2.465     1.070    -0.000
   641   6 C        2.637     0.114    -0.000
   642   8 O        2.502     0.360    -0.000
   643   6 C        2.689     0.020    -0.000
   644   8 O        2.414     1.633    -0.000
   645   6 C        2.596     1.016    -0.000
   646   6 C        2.803     0.017    -0.000
   647   7 N        2.858     0.028    -0.000
   648   6 C        2.793     0.001    -0.000
   649   7 N        2.573     0.293    -0.000
   650   6 C        3.015     3.372    -0.000
   651   6 C        2.651     4.277    -0.000
   652   8 O        2.150    20.153    -0.002
   653   7 N        2.460     2.769    -0.000
   654   6 C        2.669     6.606    -0.001
   655   7 N        2.206     6.368    -0.000
   656   7 N        2.587     2.819    -0.000
   657   6 C        3.153     2.290    -0.000
   658   8 O        2.283     0.894    -0.000
   659   1 H        1.944     6.014    -0.010
   660   1 H        1.878    16.884    -0.028
   661   1 H        2.024     9.118    -0.015
   662   1 H        2.060     4.344    -0.007
   663   1 H        2.013     4.193    -0.007
   664   1 H        1.961    11.619    -0.020
   665   1 H        2.121     3.443    -0.006
   666   1 H        2.034     0.656    -0.001
   667   1 H        1.963    15.193    -0.026
   668   1 H        1.872    16.589    -0.028
   669   1 H        1.890    12.994    -0.022
   670  15 P        2.785     5.911    -0.001
   671   8 O        2.088    13.544    -0.002
   672   8 O        2.098    23.324    -0.003
   673   8 O        2.251     7.748    -0.001
   674   6 C        2.467     0.323    -0.000
   675   6 C        2.556     0.415    -0.000
   676   8 O        2.392    11.845    -0.001
   677   6 C        2.647     0.321    -0.000
   678   8 O        2.382     3.799    -0.000
   679   6 C        2.662     0.122    -0.000
   680   6 C        2.727     0.620    -0.000
   681   7 N        2.841     0.887    -0.000
   682   6 C        2.730     1.913    -0.000
   683   7 N        2.539     4.149    -0.000
   684   6 C        3.113     0.008    -0.000
   685   6 C        2.822     0.014    -0.000
   686   8 O        2.305     2.190    -0.000
   687   7 N        2.707     0.000     0.000
   688   6 C        2.813     0.203    -0.000
   689   7 N        2.278     2.876    -0.000
   690   7 N        2.583     5.334    -0.000
   691   6 C        3.182     1.380    -0.000
   692   1 H        1.888    14.207    -0.024
   693   1 H        1.974     3.118    -0.005
   694   1 H        1.912    19.202    -0.032
   695   1 H        1.999     8.818    -0.015
   696   1 H        2.063     5.844    -0.010
   697   1 H        2.081     0.460    -0.001
   698   1 H        2.018     4.298    -0.007
   699   1 H        2.018     2.996    -0.005
   700   1 H        2.343     0.000     0.000
   701   1 H        1.973     2.183    -0.004
   702   1 H        1.898    18.613    -0.031
   703  15 P        2.781     9.181    -0.002
   704   8 O        2.062    16.843    -0.002
   705   8 O        2.104    22.727    -0.003
   706   8 O        2.316     0.922    -0.000
   707   6 C        2.486     0.192    -0.000
   708   6 C        2.558     0.395    -0.000
   709   8 O        2.444     1.914    -0.000
   710   6 C        2.663    -0.029     0.000
   711   8 O        2.368     4.201    -0.000
   712   6 C        2.612     0.337    -0.000
   713   6 C        2.739     0.006    -0.000
   714   7 N        2.760     0.000     0.000
   715   6 C        2.794     0.000     0.000
   716   8 O        2.252     4.874    -0.001
   717   7 N        2.655     0.000     0.000
   718   6 C        2.828     0.042    -0.000
   719   7 N        2.297     0.392    -0.000
   720   6 C        2.728     1.917    -0.000
   721   6 C        2.758     0.524    -0.000
   722   1 H        1.933     7.589    -0.013
   723   1 H        1.905     9.993    -0.017
   724   1 H        1.914    19.181    -0.032
   725   1 H        2.057     4.196    -0.007
   726   1 H        2.017     5.837    -0.010
   727   1 H        2.039     0.062    -0.000
   728   1 H        2.003     6.612    -0.011
   729   1 H        2.001     0.423    -0.001
   730   1 H        1.909    17.087    -0.029
   731   1 H        2.008    12.017    -0.020
   732   1 H        2.068     2.412    -0.004
   733  15 P        2.767     9.107    -0.002
   734   8 O        2.068    16.330    -0.002
   735   8 O        2.078    26.634    -0.003
   736   8 O        2.289     2.754    -0.000
   737   6 C        2.459     0.386    -0.000
   738   6 C        2.534     0.301    -0.000
   739   8 O        2.408     6.212    -0.001
   740   6 C        2.472     0.465    -0.000
   741   8 O        2.047    14.209    -0.002
   742   6 C        2.530     0.628    -0.000
   743   6 C        2.676     0.180    -0.000
   744   7 N        2.735     0.247    -0.000
   745   6 C        2.679     4.104    -0.000
   746   7 N        2.433    13.818    -0.001
   747   6 C        2.977     2.295    -0.000
   748   6 C        2.658     4.446    -0.000
   749   8 O        2.165    17.140    -0.002
   750   7 N        2.550     2.135    -0.000
   751   6 C        2.733     2.607    -0.000
   752   7 N        2.272     3.767    -0.000
   753   7 N        2.524     7.436    -0.001
   754   6 C        3.039     3.273    -0.000
   755   1 H        1.942     5.744    -0.010
   756   1 H        1.881    11.556    -0.019
   757   1 H        1.915    15.358    -0.026
   758   1 H        1.904    16.014    -0.027
   759   1 H        1.726    23.068    -0.039
   760   1 H        2.000     5.714    -0.010
   761   1 H        1.912    18.914    -0.032
   762   1 H        2.012    11.764    -0.020
   763   1 H        1.988     9.477    -0.016
   764   1 H        2.192     1.900    -0.003
   765   1 H        1.968     1.989    -0.003
   766   1 H        1.903    19.882    -0.033
   767   1 H        1.775    19.138    -0.032
   768   1 H        1.755    26.971    -0.045
   769   1 H        1.747    26.807    -0.045
   770   1 H        1.761    26.393    -0.044
   771   1 H        1.755    26.816    -0.045
   772   1 H        1.755    26.634    -0.045
   773   1 H        1.760    25.928    -0.044
   774   1 H        1.844    16.977    -0.029
   775   1 H        1.780    19.788    -0.033
   776   1 H        1.762    20.116    -0.034
   777   1 H        1.774    18.301    -0.031
   778   1 H        1.756    22.165    -0.037
   779   1 H        1.754    26.213    -0.044
   780   1 H        1.759    26.323    -0.044
   781   1 H        1.778    22.348    -0.038
   782   1 H        1.787    19.264    -0.032
   783   1 H        1.816    14.594    -0.025
   784   1 H        1.819     8.946    -0.015
   785   1 H        1.777    20.406    -0.034
   786   1 H        1.790    15.990    -0.027
   787   1 H        1.774    19.064    -0.032
   788   1 H        1.766    25.685    -0.043

 total SASA / Å² :     4624.484

     #   Z          covCN         q      C6AA      α(0)
     1   8 O        1.647    -0.527    23.480     6.541
     2   6 C        3.666     0.049    20.001     6.414
     3   6 C        3.796     0.101    18.925     6.195
     4   8 O        1.703    -0.327    19.477     5.959
     5   6 C        3.911     0.108    18.756     6.156
     6   8 O        1.651    -0.361    20.120     6.055
     7   6 C        3.838    -0.078    21.967     6.668
     8   6 C        3.726     0.180    17.821     6.027
     9   7 N        2.738    -0.090    22.987     7.121
    10   6 C        2.724     0.316    21.636     7.615
    11   8 O        0.860    -0.563    25.232     6.735
    12   7 N        1.856    -0.393    31.143     8.271
    13   6 C        2.850     0.194    23.864     8.006
    14   7 N        2.669    -0.221    25.819     7.547
    15   6 C        2.911    -0.091    30.290     9.025
    16   6 C        2.852     0.045    26.981     8.513
    17   1 H        0.924     0.080     1.980     2.201
    18   1 H        0.925     0.069     2.100     2.266
    19   1 H        0.924     0.068     2.110     2.271
    20   1 H        0.925     0.078     1.996     2.209
    21   1 H        0.924     0.074     2.042     2.234
    22   1 H        0.925     0.063     2.163     2.300
    23   1 H        0.925     0.067     2.117     2.275
    24   1 H        0.860     0.231     0.962     1.537
    25   1 H        0.860     0.257     0.856     1.450
    26   1 H        0.926     0.096     1.818     2.109
    27   1 H        0.926     0.104     1.748     2.067
    28   1 H        0.805     0.376     0.532     1.145
    29  15 P        3.679     0.754   130.852    20.548
    30   8 O        1.613    -0.407    21.011     6.187
    31   8 O        0.808    -0.596    26.039     6.840
    32   8 O        1.658    -0.339    19.696     5.991
    33   6 C        3.860     0.060    19.531     6.285
    34   6 C        3.885     0.090    19.047     6.205
    35   8 O        1.704    -0.344    19.772     6.003
    36   6 C        4.022     0.116    18.611     6.128
    37   8 O        1.660    -0.303    19.059     5.893
    38   6 C        3.897    -0.085    22.061     6.677
    39   6 C        3.770     0.177    17.803     6.013
    40   7 N        2.850    -0.038    21.970     6.962
    41   6 C        3.042     0.086    26.049     8.371
    42   7 N        1.885    -0.306    28.792     7.954
    43   6 C        3.120    -0.025    28.440     8.734
    44   6 C        2.766     0.273    22.393     7.750
    45   8 O        0.866    -0.489    23.533     6.504
    46   7 N        2.735    -0.204    25.435     7.490
    47   6 C        2.851     0.237    23.058     7.870
    48   7 N        2.680    -0.251    26.537     7.651
    49   7 N        1.840    -0.359    30.207     8.145
    50   6 C        3.093     0.123    25.199     8.228
    51   1 H        0.924     0.087     1.906     2.159
    52   1 H        0.924     0.089     1.886     2.148
    53   1 H        0.924     0.099     1.795     2.095
    54   1 H        0.924     0.077     2.011     2.218
    55   1 H        0.924     0.076     2.023     2.225
    56   1 H        0.925     0.067     2.119     2.277
    57   1 H        0.925     0.068     2.111     2.272
    58   1 H        0.926     0.069     2.102     2.267
    59   1 H        0.860     0.238     0.931     1.512
    60   1 H        0.860     0.248     0.891     1.479
    61   1 H        0.860     0.262     0.840     1.436
    62  15 P        3.831     0.787   129.749    20.462
    63   8 O        1.613    -0.418    21.215     6.217
    64   8 O        0.808    -0.619    26.610     6.915
    65   8 O        1.659    -0.369    20.254     6.075
    66   6 C        3.915     0.063    19.461     6.270
    67   6 C        3.809     0.089    19.108     6.222
    68   8 O        1.706    -0.329    19.509     5.963
    69   6 C        4.039     0.121    18.537     6.116
    70   8 O        1.660    -0.353    19.959     6.031
    71   6 C        3.831    -0.098    22.336     6.724
    72   6 C        3.807     0.178    17.764     6.000
    73   7 N        2.753    -0.082    22.831     7.097
    74   6 C        2.748     0.329    21.416     7.578
    75   8 O        0.861    -0.514    24.088     6.580
    76   7 N        1.853    -0.377    30.702     8.212
    77   6 C        2.875     0.193    23.885     8.012
    78   7 N        2.659    -0.254    26.593     7.659
    79   6 C        2.927    -0.096    30.409     9.043
    80   6 C        2.866     0.047    26.951     8.510
    81   1 H        0.925     0.067     2.115     2.274
    82   1 H        0.924     0.074     2.039     2.233
    83   1 H        0.924     0.091     1.874     2.141
    84   1 H        0.925     0.059     2.208     2.323
    85   1 H        0.925     0.088     1.894     2.152
    86   1 H        0.925     0.074     2.047     2.237
    87   1 H        0.924     0.067     2.116     2.275
    88   1 H        0.861     0.238     0.930     1.511
    89   1 H        0.860     0.223     0.997     1.564
    90   1 H        0.926     0.060     2.201     2.320
    91   1 H        0.926     0.094     1.838     2.120
    92  15 P        3.889     0.796   129.443    20.438
    93   8 O        0.808    -0.632    26.955     6.960
    94   8 O        1.614    -0.414    21.155     6.208
    95   8 O        1.658    -0.322    19.395     5.945
    96   6 C        3.982     0.062    19.465     6.268
    97   6 C        3.959     0.101    18.857     6.170
    98   8 O        1.709    -0.332    19.565     5.972
    99   6 C        3.946     0.106    18.781     6.158
   100   8 O        1.658    -0.375    20.367     6.092
   101   6 C        3.869    -0.098    22.318     6.718
   102   6 C        3.864     0.181    17.677     5.979
   103   7 N        2.806    -0.088    22.956     7.116
   104   6 C        3.215     0.094    25.288     8.182
   105   7 N        1.876    -0.288    28.325     7.889
   106   6 C        3.240    -0.017    27.499     8.502
   107   6 C        2.785     0.274    22.370     7.747
   108   8 O        0.867    -0.524    24.317     6.612
   109   7 N        2.734    -0.206    25.469     7.495
   110   6 C        2.852     0.245    22.898     7.843
   111   7 N        2.680    -0.250    26.502     7.646
   112   7 N        1.861    -0.356    30.104     8.133
   113   6 C        3.143     0.139    24.756     8.141
   114   1 H        0.924     0.080     1.980     2.200
   115   1 H        0.924     0.098     1.806     2.101
   116   1 H        0.924     0.075     2.027     2.226
   117   1 H        0.925     0.078     1.997     2.210
   118   1 H        0.924     0.088     1.894     2.152
   119   1 H        0.925     0.084     1.940     2.178
   120   1 H        0.924     0.060     2.200     2.319
   121   1 H        0.926     0.075     2.031     2.229
   122   1 H        0.860     0.223     0.997     1.564
   123   1 H        0.860     0.229     0.969     1.542
   124   1 H        0.860     0.267     0.820     1.418
   125  15 P        3.771     0.802   129.250    20.422
   126   8 O        0.808    -0.640    27.149     6.985
   127   8 O        1.614    -0.405    20.971     6.181
   128   8 O        1.655    -0.318    19.336     5.936
   129   6 C        3.928     0.054    19.603     6.292
   130   6 C        3.865     0.102    18.863     6.176
   131   8 O        1.708    -0.305    19.079     5.897
   132   6 C        3.908     0.105    18.809     6.164
   133   8 O        1.655    -0.370    20.277     6.079
   134   6 C        3.843    -0.102    22.411     6.734
   135   6 C        3.770     0.169    17.916     6.032
   136   7 N        2.844    -0.073    22.651     7.069
   137   6 C        3.043     0.098    25.780     8.328
   138   7 N        1.873    -0.283    28.183     7.869
   139   6 C        3.174     0.009    27.424     8.553
   140   6 C        2.867     0.169    24.365     8.091
   141   7 N        2.649    -0.227    25.965     7.568
   142   7 N        1.840    -0.352    30.012     8.119
   143   6 C        2.915     0.147    24.811     8.168
   144   7 N        1.822    -0.335    29.537     8.053
   145   6 C        3.056     0.121    25.288     8.247
   146   1 H        0.924     0.090     1.880     2.144
   147   1 H        0.924     0.088     1.900     2.156
   148   1 H        0.925     0.100     1.783     2.088
   149   1 H        0.924     0.077     2.013     2.219
   150   1 H        0.925     0.095     1.827     2.114
   151   1 H        0.926     0.088     1.902     2.157
   152   1 H        0.924     0.071     2.072     2.251
   153   1 H        0.926     0.092     1.855     2.130
   154   1 H        0.860     0.226     0.984     1.554
   155   1 H        0.860     0.253     0.872     1.463
   156   1 H        0.926     0.033     2.537     2.491
   157  15 P        3.778     0.806   129.109    20.411
   158   8 O        0.808    -0.611    26.428     6.891
   159   8 O        1.614    -0.402    20.919     6.173
   160   8 O        1.660    -0.332    19.570     5.972
   161   6 C        3.958     0.063    19.452     6.267
   162   6 C        3.871     0.096    18.963     6.192
   163   8 O        1.699    -0.336    19.638     5.983
   164   6 C        4.000     0.112    18.683     6.141
   165   8 O        1.661    -0.367    20.217     6.070
   166   6 C        3.861    -0.103    22.424     6.734
   167   6 C        3.770     0.166    17.972     6.041
   168   7 N        2.836    -0.063    22.449     7.037
   169   6 C        3.233     0.094    25.118     8.134
   170   7 N        1.862    -0.277    28.031     7.847
   171   6 C        3.285     0.008    26.307     8.243
   172   6 C        2.922     0.160    24.552     8.126
   173   7 N        2.652    -0.255    26.629     7.664
   174   7 N        1.848    -0.338    29.629     8.067
   175   6 C        2.991     0.159    24.564     8.130
   176   7 N        1.827    -0.334    29.511     8.050
   177   6 C        3.212     0.139    24.381     8.037
   178   1 H        0.924     0.069     2.101     2.266
   179   1 H        0.924     0.070     2.088     2.260
   180   1 H        0.924     0.086     1.918     2.166
   181   1 H        0.924     0.074     2.046     2.237
   182   1 H        0.925     0.095     1.834     2.118
   183   1 H        0.925     0.099     1.791     2.093
   184   1 H        0.925     0.089     1.887     2.148
   185   1 H        0.926     0.093     1.850     2.127
   186   1 H        0.860     0.228     0.976     1.547
   187   1 H        0.860     0.246     0.898     1.484
   188   1 H        0.926     0.021     2.711     2.575
   189  15 P        3.903     0.829   128.357    20.352
   190   8 O        0.808    -0.643    27.233     6.995
   191   8 O        1.614    -0.382    20.527     6.115
   192   8 O        1.658    -0.324    19.440     5.952
   193   6 C        3.950     0.060    19.512     6.277
   194   6 C        3.809     0.097    18.972     6.200
   195   8 O        1.710    -0.332    19.551     5.970
   196   6 C        3.899     0.094    18.972     6.192
   197   8 O        1.653    -0.371    20.305     6.083
   198   6 C        3.855    -0.107    22.497     6.746
   199   6 C        3.724     0.183    17.788     6.022
   200   7 N        2.740    -0.086    22.909     7.109
   201   6 C        2.706     0.324    21.494     7.588
   202   8 O        0.859    -0.504    23.879     6.552
   203   7 N        2.708    -0.192    25.169     7.451
   204   6 C        2.769     0.287    22.137     7.706
   205   8 O        0.866    -0.462    22.955     6.424
   206   6 C        2.959    -0.038    28.937     8.823
   207   6 C        3.761    -0.138    23.195     6.865
   208   6 C        2.849     0.008    27.827     8.646
   209   1 H        0.925     0.079     1.988     2.205
   210   1 H        0.925     0.098     1.805     2.101
   211   1 H        0.924     0.081     1.971     2.195
   212   1 H        0.925     0.102     1.770     2.081
   213   1 H        0.925     0.096     1.819     2.109
   214   1 H        0.926     0.093     1.851     2.128
   215   1 H        0.924     0.054     2.267     2.355
   216   1 H        0.860     0.231     0.963     1.537
   217   1 H        0.924     0.081     1.965     2.192
   218   1 H        0.924     0.098     1.801     2.098
   219   1 H        0.924     0.084     1.934     2.175
   220   1 H        0.926     0.123     1.586     1.969
   221  15 P        3.789     0.792   129.570    20.448
   222   8 O        0.808    -0.568    25.362     6.751
   223   8 O        1.614    -0.372    20.330     6.086
   224   8 O        1.661    -0.334    19.616     5.979
   225   6 C        3.957     0.070    19.340     6.249
   226   6 C        3.809     0.096    18.990     6.203
   227   8 O        1.701    -0.330    19.531     5.967
   228   6 C        3.929     0.094    18.971     6.190
   229   8 O        1.660    -0.341    19.734     5.997
   230   6 C        3.808    -0.104    22.472     6.748
   231   6 C        3.770     0.176    17.821     6.016
   232   7 N        2.744    -0.058    22.355     7.022
   233   6 C        2.716     0.339    21.243     7.545
   234   8 O        0.860    -0.509    23.992     6.567
   235   7 N        2.703    -0.212    25.623     7.518
   236   6 C        2.755     0.263    22.568     7.779
   237   8 O        0.858    -0.498    23.730     6.531
   238   6 C        2.943    -0.042    29.039     8.838
   239   6 C        3.751    -0.140    23.253     6.877
   240   6 C        2.835     0.012    27.730     8.629
   241   1 H        0.924     0.054     2.276     2.359
   242   1 H        0.925     0.070     2.084     2.258
   243   1 H        0.924     0.073     2.052     2.240
   244   1 H        0.924     0.102     1.765     2.078
   245   1 H        0.925     0.118     1.628     1.995
   246   1 H        0.925     0.091     1.867     2.137
   247   1 H        0.925     0.062     2.175     2.306
   248   1 H        0.862     0.228     0.974     1.546
   249   1 H        0.925     0.080     1.975     2.198
   250   1 H        0.925     0.088     1.901     2.156
   251   1 H        0.925     0.108     1.711     2.046
   252   1 H        0.926     0.145     1.427     1.868
   253  15 P        3.682     0.783   129.885    20.472
   254   8 O        0.808    -0.591    25.920     6.825
   255   8 O        1.614    -0.405    20.968     6.180
   256   8 O        1.652    -0.369    20.266     6.077
   257   6 C        3.826     0.066    19.465     6.278
   258   6 C        3.823     0.105    18.835     6.176
   259   8 O        1.697    -0.359    20.054     6.046
   260   6 C        3.902     0.114    18.665     6.141
   261   8 O        1.663    -0.360    20.091     6.051
   262   6 C        3.824    -0.092    22.239     6.711
   263   6 C        3.727     0.176    17.876     6.036
   264   7 N        2.789    -0.124    23.693     7.229
   265   6 C        2.930     0.328    21.442     7.594
   266   7 N        2.733    -0.165    24.565     7.361
   267   6 C        3.085    -0.015    28.292     8.719
   268   6 C        2.766     0.273    22.379     7.747
   269   8 O        0.860    -0.502    23.831     6.545
   270   7 N        2.732    -0.194    25.205     7.456
   271   6 C        2.832     0.225    23.268     7.905
   272   7 N        2.669    -0.268    26.926     7.707
   273   7 N        1.826    -0.302    28.668     7.934
   274   6 C        3.034     0.133    25.063     8.211
   275   8 O        0.859    -0.574    25.498     6.770
   276   1 H        0.924     0.057     2.235     2.338
   277   1 H        0.925     0.072     2.062     2.246
   278   1 H        0.924     0.055     2.254     2.348
   279   1 H        0.925     0.076     2.016     2.220
   280   1 H        0.924     0.113     1.667     2.019
   281   1 H        0.924     0.094     1.841     2.122
   282   1 H        0.925     0.061     2.191     2.314
   283   1 H        0.859     0.236     0.939     1.518
   284   1 H        0.859     0.275     0.793     1.395
   285   1 H        0.859     0.280     0.775     1.379
   286   1 H        0.859     0.272     0.803     1.404
   287  15 P        3.672     0.763   130.554    20.525
   288   8 O        0.808    -0.573    25.491     6.768
   289   8 O        1.614    -0.393    20.731     6.145
   290   8 O        1.656    -0.348    19.860     6.016
   291   6 C        3.844     0.048    19.740     6.320
   292   6 C        3.798     0.103    18.894     6.189
   293   8 O        1.709    -0.311    19.179     5.913
   294   6 C        3.857     0.100    18.908     6.184
   295   8 O        1.653    -0.372    20.316     6.085
   296   6 C        3.818    -0.096    22.316     6.723
   297   6 C        3.764     0.168    17.938     6.037
   298   7 N        2.832    -0.061    22.421     7.033
   299   6 C        3.074     0.096    25.796     8.327
   300   7 N        1.864    -0.304    28.729     7.945
   301   6 C        3.163    -0.024    28.264     8.690
   302   6 C        2.779     0.272    22.405     7.753
   303   8 O        0.862    -0.509    23.991     6.567
   304   7 N        2.719    -0.176    24.810     7.398
   305   6 C        2.866     0.236    23.075     7.874
   306   7 N        2.660    -0.260    26.755     7.682
   307   7 N        1.846    -0.350    29.944     8.110
   308   6 C        3.078     0.126    25.166     8.225
   309   1 H        0.924     0.100     1.787     2.091
   310   1 H        0.924     0.084     1.938     2.177
   311   1 H        0.924     0.086     1.918     2.166
   312   1 H        0.924     0.074     2.042     2.235
   313   1 H        0.924     0.090     1.882     2.145
   314   1 H        0.925     0.086     1.921     2.168
   315   1 H        0.925     0.077     2.014     2.219
   316   1 H        0.926     0.076     2.026     2.226
   317   1 H        0.860     0.233     0.952     1.529
   318   1 H        0.860     0.231     0.961     1.535
   319   1 H        0.860     0.248     0.890     1.478
   320  15 P        3.682     0.798   129.380    20.433
   321   8 O        1.614    -0.381    20.516     6.113
   322   8 O        0.808    -0.593    25.975     6.832
   323   8 O        1.656    -0.369    20.261     6.076
   324   6 C        3.903     0.056    19.593     6.292
   325   6 C        3.812     0.095    19.005     6.205
   326   8 O        1.703    -0.318    19.317     5.934
   327   6 C        3.952     0.111    18.704     6.145
   328   8 O        1.659    -0.344    19.788     6.005
   329   6 C        3.826    -0.084    22.085     6.687
   330   6 C        3.743     0.174    17.883     6.033
   331   7 N        2.741    -0.106    23.318     7.172
   332   6 C        2.738     0.345    21.144     7.529
   333   8 O        0.872    -0.537    24.620     6.653
   334   7 N        1.859    -0.382    30.836     8.231
   335   6 C        2.871     0.189    23.958     8.024
   336   7 N        2.650    -0.235    26.157     7.596
   337   6 C        2.912    -0.091    30.294     9.025
   338   6 C        2.870     0.048    26.909     8.503
   339   1 H        0.925     0.081     1.970     2.195
   340   1 H        0.924     0.079     1.993     2.208
   341   1 H        0.924     0.095     1.827     2.114
   342   1 H        0.925     0.077     2.010     2.217
   343   1 H        0.925     0.084     1.942     2.179
   344   1 H        0.925     0.076     2.026     2.226
   345   1 H        0.924     0.061     2.184     2.311
   346   1 H        0.860     0.241     0.918     1.501
   347   1 H        0.860     0.252     0.875     1.465
   348   1 H        0.926     0.084     1.934     2.175
   349   1 H        0.926     0.092     1.859     2.132
   350  15 P        3.790     0.767   130.444    20.516
   351   8 O        0.808    -0.624    26.750     6.933
   352   8 O        1.614    -0.393    20.738     6.146
   353   8 O        1.653    -0.360    20.090     6.051
   354   6 C        3.881     0.061    19.508     6.280
   355   6 C        3.780     0.091    19.088     6.224
   356   8 O        1.703    -0.351    19.912     6.025
   357   6 C        3.730     0.105    18.941     6.213
   358   8 O        1.657    -0.481    22.493     6.402
   359   6 C        3.832    -0.094    22.268     6.714
   360   6 C        3.686     0.164    18.145     6.098
   361   7 N        2.850    -0.059    22.372     7.025
   362   6 C        3.140     0.083    25.915     8.331
   363   7 N        1.861    -0.306    28.791     7.953
   364   6 C        3.260    -0.005    26.966     8.391
   365   6 C        2.787     0.261    22.604     7.788
   366   8 O        0.859    -0.510    24.017     6.571
   367   7 N        2.768    -0.180    24.883     7.409
   368   6 C        2.869     0.247    22.871     7.839
   369   7 N        2.707    -0.265    26.850     7.696
   370   7 N        1.835    -0.350    29.945     8.109
   371   6 C        3.086     0.129    25.097     8.212
   372   1 H        0.924     0.067     2.123     2.278
   373   1 H        0.925     0.078     2.002     2.213
   374   1 H        0.924     0.073     2.048     2.238
   375   1 H        0.925     0.084     1.939     2.177
   376   1 H        0.805     0.355     0.578     1.194
   377   1 H        0.925     0.068     2.106     2.270
   378   1 H        0.924     0.083     1.952     2.185
   379   1 H        0.925     0.072     2.060     2.244
   380   1 H        0.926     0.067     2.118     2.276
   381   1 H        0.860     0.238     0.930     1.510
   382   1 H        0.860     0.239     0.927     1.508
   383   1 H        0.860     0.269     0.814     1.413
   384   8 O        1.653    -0.486    22.588     6.416
   385   6 C        3.673     0.054    19.902     6.393
   386   6 C        3.823     0.095    18.993     6.202
   387   8 O        1.707    -0.342    19.733     5.998
   388   6 C        3.896     0.117    18.619     6.134
   389   8 O        1.658    -0.368    20.248     6.075
   390   6 C        3.835    -0.086    22.115     6.690
   391   6 C        3.754     0.183    17.745     6.007
   392   7 N        2.744    -0.089    22.967     7.118
   393   6 C        2.762     0.315    21.648     7.620
   394   8 O        0.858    -0.596    26.016     6.839
   395   7 N        1.845    -0.373    30.573     8.195
   396   6 C        2.890     0.201    23.736     7.988
   397   7 N        2.672    -0.240    26.273     7.613
   398   6 C        2.935    -0.096    30.414     9.045
   399   6 C        2.861     0.047    26.944     8.508
   400   1 H        0.925     0.080     1.974     2.197
   401   1 H        0.925     0.079     1.985     2.203
   402   1 H        0.924     0.061     2.182     2.310
   403   1 H        0.925     0.067     2.115     2.274
   404   1 H        0.924     0.064     2.151     2.293
   405   1 H        0.925     0.068     2.103     2.268
   406   1 H        0.925     0.063     2.168     2.303
   407   1 H        0.860     0.248     0.891     1.479
   408   1 H        0.860     0.259     0.850     1.444
   409   1 H        0.926     0.095     1.827     2.114
   410   1 H        0.926     0.092     1.855     2.130
   411   1 H        0.805     0.333     0.629     1.245
   412  15 P        3.874     0.774   130.177    20.495
   413   8 O        1.614    -0.383    20.551     6.119
   414   8 O        0.808    -0.612    26.453     6.894
   415   8 O        1.662    -0.332    19.581     5.974
   416   6 C        4.034     0.058    19.536     6.279
   417   6 C        3.770     0.088    19.160     6.238
   418   8 O        1.701    -0.339    19.686     5.990
   419   6 C        3.964     0.115    18.638     6.134
   420   8 O        1.659    -0.339    19.710     5.993
   421   6 C        3.829    -0.084    22.084     6.687
   422   6 C        3.717     0.177    17.888     6.042
   423   7 N        2.822    -0.058    22.361     7.023
   424   6 C        3.241     0.089    25.154     8.131
   425   7 N        1.853    -0.287    28.299     7.884
   426   6 C        3.260    -0.025    27.444     8.465
   427   6 C        2.796     0.272    22.405     7.754
   428   8 O        0.875    -0.523    24.294     6.609
   429   7 N        2.727    -0.177    24.834     7.401
   430   6 C        2.823     0.236    23.065     7.869
   431   7 N        2.663    -0.260    26.746     7.681
   432   7 N        1.846    -0.379    30.749     8.218
   433   6 C        3.119     0.128    25.041     8.196
   434   1 H        0.924     0.090     1.882     2.145
   435   1 H        0.925     0.096     1.819     2.109
   436   1 H        0.924     0.099     1.795     2.095
   437   1 H        0.924     0.075     2.036     2.231
   438   1 H        0.925     0.078     2.003     2.213
   439   1 H        0.925     0.066     2.125     2.280
   440   1 H        0.925     0.069     2.093     2.262
   441   1 H        0.926     0.064     2.155     2.296
   442   1 H        0.860     0.238     0.930     1.511
   443   1 H        0.860     0.240     0.922     1.505
   444   1 H        0.860     0.257     0.859     1.451
[...]
   522   6 C    3.961 --   528 C    1.368   521 N    1.164   523 C    1.154
   523   6 C    3.971 --   524 N    1.389   525 N    1.297   522 C    1.154
   524   7 N    3.477 --   523 C    1.389   538 H    0.917   537 H    0.897
   525   7 N    3.089 --   526 C    1.391   523 C    1.297
   526   6 C    3.973 --   527 N    1.488   525 N    1.391   539 H    0.956
   527   7 N    2.997 --   526 C    1.488   528 C    1.224
   528   6 C    3.956 --   522 C    1.368   527 N    1.224   519 N    1.146
   529   1 H    0.991 --   512 C    0.961
   530   1 H    0.991 --   512 C    0.964
   531   1 H    0.983 --   513 C    0.951
   532   1 H    0.992 --   515 C    0.962
   533   1 H    0.992 --   517 C    0.963
   534   1 H    0.995 --   517 C    0.967
   535   1 H    0.996 --   518 C    0.952
   536   1 H    0.994 --   520 C    0.952
   537   1 H    0.942 --   524 N    0.897
   538   1 H    0.938 --   524 N    0.917
   539   1 H    0.999 --   526 C    0.956
   540  15 P    5.467 --   542 O    1.756   541 O    1.366   543 O    1.163
                           516 O    1.132
   541   8 O    2.256 --   540 P    1.366   771 H    0.725
   542   8 O    1.963 --   540 P    1.756
   543   8 O    2.263 --   540 P    1.163   544 C    0.919
   544   6 C    3.916 --   545 C    0.990   562 H    0.968   561 H    0.966
                           543 O    0.919
   545   6 C    3.941 --   544 C    0.990   547 C    0.971   546 O    0.970
                           563 H    0.946
   546   8 O    2.069 --   545 C    0.970   550 C    0.965
   547   6 C    3.922 --   549 C    0.995   545 C    0.971   564 H    0.963
                           548 O    0.922
   548   8 O    2.252 --   572 P    1.116   547 C    0.922
   549   6 C    3.984 --   547 C    0.995   550 C    0.970   565 H    0.968
                           566 H    0.962
   550   6 C    3.928 --   549 C    0.970   546 O    0.965   551 N    0.965
                           567 H    0.957
   551   7 N    3.614 --   552 C    1.249   560 C    1.143   550 C    0.965
                           553 N    0.111
   552   6 C    3.951 --   553 N    1.555   551 N    1.249   568 H    0.955
   553   7 N    2.985 --   552 C    1.555   554 C    1.208   551 N    0.111
   554   6 C    3.973 --   560 C    1.326   553 N    1.208   555 C    1.178
   555   6 C    3.975 --   557 N    1.341   556 N    1.309   554 C    1.178
   556   7 N    3.410 --   555 C    1.309   570 H    0.925   569 H    0.914
   557   7 N    3.063 --   558 C    1.384   555 C    1.341
   558   6 C    3.971 --   559 N    1.469   557 N    1.384   571 H    0.953
   559   7 N    3.013 --   558 C    1.469   560 C    1.269
   560   6 C    3.958 --   554 C    1.326   559 N    1.269   551 N    1.143
   561   1 H    0.991 --   544 C    0.966
   562   1 H    0.991 --   544 C    0.968
   563   1 H    0.990 --   545 C    0.946
   564   1 H    0.992 --   547 C    0.963
   565   1 H    0.992 --   549 C    0.968
   566   1 H    0.993 --   549 C    0.962
   567   1 H    0.994 --   550 C    0.957
   568   1 H    0.994 --   552 C    0.955
   569   1 H    0.941 --   556 N    0.914
   570   1 H    0.942 --   556 N    0.925
   571   1 H    0.999 --   558 C    0.953
   572  15 P    5.438 --   574 O    1.754   573 O    1.369   575 O    1.137
                           548 O    1.116
   573   8 O    2.261 --   572 P    1.369   772 H    0.729
   574   8 O    1.962 --   572 P    1.754
   575   8 O    2.280 --   572 P    1.137   576 C    0.952
   576   6 C    3.927 --   577 C    0.980   593 H    0.964   592 H    0.964
                           575 O    0.952
   577   6 C    3.944 --   576 C    0.980   579 C    0.978   578 O    0.970
                           594 H    0.945
   578   8 O    2.072 --   577 C    0.970   582 C    0.970
   579   6 C    3.934 --   581 C    0.991   577 C    0.978   595 H    0.961
                           580 O    0.936
   580   8 O    2.210 --   604 P    1.059   579 C    0.936
   581   6 C    3.983 --   579 C    0.991   582 C    0.979   596 H    0.967
                           597 H    0.959
   582   6 C    3.924 --   581 C    0.979   578 O    0.970   598 H    0.956
                           583 N    0.945
   583   7 N    3.554 --   591 C    1.142   584 C    1.126   582 C    0.945
                           585 O    0.136
   584   6 C    3.959 --   585 O    1.604   586 N    1.150   583 N    1.126
   585   8 O    1.954 --   584 C    1.604   583 N    0.136   586 N    0.133
   586   7 N    3.505 --   584 C    1.150   587 C    1.123   599 H    0.855
                           588 O    0.136   585 O    0.133
   587   6 C    3.935 --   588 O    1.631   586 N    1.123   589 C    1.077
   588   8 O    1.962 --   587 C    1.631   586 N    0.136
   589   6 C    3.975 --   591 C    1.669   587 C    1.077   590 C    1.016
   590   6 C    3.978 --   589 C    1.016   602 H    0.979   601 H    0.975
                           600 H    0.959
   591   6 C    3.948 --   589 C    1.669   583 N    1.142   603 H    0.948
   592   1 H    0.995 --   576 C    0.964
   593   1 H    0.992 --   576 C    0.964
   594   1 H    0.994 --   577 C    0.945
   595   1 H    0.994 --   579 C    0.961
   596   1 H    0.993 --   581 C    0.967
   597   1 H    0.991 --   581 C    0.959
   598   1 H    0.994 --   582 C    0.956
   599   1 H    0.941 --   586 N    0.855
   600   1 H    0.989 --   590 C    0.959
   601   1 H    0.993 --   590 C    0.975
   602   1 H    0.994 --   590 C    0.979
   603   1 H    0.989 --   591 C    0.948
   604  15 P    5.402 --   606 O    1.749   605 O    1.406   607 O    1.130
                           580 O    1.059
   605   8 O    2.288 --   604 P    1.406   773 H    0.721
   606   8 O    1.959 --   604 P    1.749
   607   8 O    2.263 --   604 P    1.130   608 C    0.936
   608   6 C    3.925 --   609 C    0.995   625 H    0.962   624 H    0.962
                           607 O    0.936
   609   6 C    3.942 --   608 C    0.995   611 C    0.971   610 O    0.954
                           626 H    0.944
   610   8 O    2.071 --   614 C    0.973   609 C    0.954
   611   6 C    3.932 --   613 C    0.986   609 C    0.971   627 H    0.958
                           612 O    0.939
   612   8 O    2.250 --   636 P    1.085   611 C    0.939
   613   6 C    3.982 --   614 C    0.989   611 C    0.986   629 H    0.963
                           628 H    0.958
   614   6 C    3.925 --   613 C    0.989   610 O    0.973   630 H    0.949
                           615 N    0.937
   615   7 N    3.573 --   623 C    1.202   616 C    1.085   614 C    0.937
                           617 O    0.130
   616   6 C    3.957 --   617 O    1.618   618 N    1.163   615 N    1.085
   617   8 O    1.967 --   616 C    1.618   618 N    0.133   615 N    0.130
   618   7 N    3.524 --   616 C    1.163   619 C    1.131   631 H    0.855
                           620 O    0.137   617 O    0.133
   619   6 C    3.943 --   620 O    1.615   618 N    1.131   621 C    1.108
   620   8 O    1.954 --   619 C    1.615   618 N    0.137
   621   6 C    3.982 --   623 C    1.607   619 C    1.108   622 C    1.028
   622   6 C    3.985 --   621 C    1.028   633 H    0.980   634 H    0.966
                           632 H    0.960
   623   6 C    3.945 --   621 C    1.607   615 N    1.202   635 H    0.939
   624   1 H    0.994 --   608 C    0.962
   625   1 H    0.990 --   608 C    0.962
   626   1 H    0.989 --   609 C    0.944
   627   1 H    0.993 --   611 C    0.958
   628   1 H    0.991 --   613 C    0.958
   629   1 H    0.991 --   613 C    0.963
   630   1 H    0.995 --   614 C    0.949
   631   1 H    0.944 --   618 N    0.855
   632   1 H    0.993 --   622 C    0.960
   633   1 H    0.994 --   622 C    0.980
   634   1 H    0.992 --   622 C    0.966
   635   1 H    0.984 --   623 C    0.939
   636  15 P    5.502 --   638 O    1.791   637 O    1.417   639 O    1.114
                           612 O    1.085
   637   8 O    2.272 --   636 P    1.417   774 H    0.679
   638   8 O    2.011 --   636 P    1.791
   639   8 O    2.272 --   636 P    1.114   640 C    0.951
   640   6 C    3.920 --   641 C    0.982   660 H    0.962   659 H    0.958
                           639 O    0.951
   641   6 C    3.939 --   643 C    0.984   640 C    0.982   661 H    0.952
                           642 O    0.944
   642   8 O    2.061 --   646 C    0.982   641 C    0.944
   643   6 C    3.921 --   645 C    0.986   641 C    0.984   662 H    0.953
                           644 O    0.908
   644   8 O    2.254 --   670 P    1.128   643 C    0.908
   645   6 C    3.975 --   643 C    0.986   646 C    0.977   664 H    0.972
                           663 H    0.959
   646   6 C    3.924 --   642 O    0.982   645 C    0.977   665 H    0.955
                           647 N    0.936
   647   7 N    3.564 --   657 C    1.176   648 C    1.131   646 C    0.936
                           658 O    0.115
   648   6 C    3.954 --   658 O    1.490   649 N    1.215   647 N    1.131
   649   7 N    3.512 --   648 C    1.215   650 C    1.097   666 H    0.911
                           658 O    0.151
   650   6 C    3.927 --   657 C    1.345   651 C    1.169   649 N    1.097
   651   6 C    3.965 --   652 O    1.547   650 C    1.169   653 N    1.137
   652   8 O    1.892 --   651 C    1.547   653 N    0.135
   653   7 N    3.516 --   654 C    1.170   651 C    1.137   667 H    0.888
                           652 O    0.135
   654   6 C    3.963 --   656 N    1.347   655 N    1.342   653 N    1.170
   655   7 N    3.388 --   654 C    1.342   669 H    0.906   668 H    0.901
                           656 N    0.104
   656   7 N    2.955 --   654 C    1.347   657 C    1.242   655 N    0.104
   657   6 C    3.960 --   650 C    1.345   656 N    1.242   647 N    1.176
   658   8 O    1.892 --   648 C    1.490   649 N    0.151   647 N    0.115
   659   1 H    0.993 --   640 C    0.958
   660   1 H    0.988 --   640 C    0.962
   661   1 H    0.994 --   641 C    0.952
   662   1 H    0.994 --   643 C    0.953
   663   1 H    0.985 --   645 C    0.959
   664   1 H    0.992 --   645 C    0.972
   665   1 H    0.996 --   646 C    0.955
   666   1 H    0.952 --   649 N    0.911
   667   1 H    0.927 --   653 N    0.888
   668   1 H    0.925 --   655 N    0.901
   669   1 H    0.930 --   655 N    0.906
   670  15 P    5.440 --   672 O    1.771   671 O    1.388   644 O    1.128
                           673 O    1.090
   671   8 O    2.281 --   670 P    1.388   775 H    0.737
   672   8 O    1.974 --   670 P    1.771
   673   8 O    2.224 --   670 P    1.090   674 C    0.948
   674   6 C    3.931 --   675 C    0.984   693 H    0.967   692 H    0.965
                           673 O    0.948
   675   6 C    3.942 --   674 C    0.984   677 C    0.965   676 O    0.959
                           694 H    0.951
   676   8 O    2.069 --   680 C    0.978   675 C    0.959
   677   6 C    3.933 --   679 C    1.001   675 C    0.965   695 H    0.955
                           678 O    0.943
   678   8 O    2.268 --   703 P    1.114   677 C    0.943
   679   6 C    3.988 --   677 C    1.001   680 C    0.987   696 H    0.959
                           697 H    0.958
   680   6 C    3.927 --   679 C    0.987   676 O    0.978   698 H    0.950
                           681 N    0.938
   681   7 N    3.595 --   691 C    1.193   682 C    1.182   680 C    0.938
                           683 N    0.110
   682   6 C    3.949 --   683 N    1.636   681 N    1.182   699 H    0.950
   683   7 N    3.032 --   682 C    1.636   684 C    1.187   681 N    0.110
   684   6 C    3.959 --   691 C    1.347   683 N    1.187   685 C    1.129
   685   6 C    3.948 --   686 O    1.506   687 N    1.193   684 C    1.129
   686   8 O    1.914 --   685 C    1.506   687 N    0.129
   687   7 N    3.543 --   685 C    1.193   688 C    1.149   700 H    0.871
                           686 O    0.129
   688   6 C    3.963 --   690 N    1.404   689 N    1.314   687 N    1.149
   689   7 N    3.384 --   688 C    1.314   702 H    0.913   701 H    0.897
                           690 N    0.116
   690   7 N    2.969 --   688 C    1.404   691 C    1.208   689 N    0.116
   691   6 C    3.960 --   684 C    1.347   690 N    1.208   681 N    1.193
   692   1 H    0.994 --   674 C    0.965
   693   1 H    0.997 --   674 C    0.967
   694   1 H    0.988 --   675 C    0.951
   695   1 H    0.995 --   677 C    0.955
   696   1 H    0.994 --   679 C    0.959
   697   1 H    0.994 --   679 C    0.958
   698   1 H    0.990 --   680 C    0.950
   699   1 H    0.996 --   682 C    0.950
   700   1 H    0.945 --   687 N    0.871
   701   1 H    0.941 --   689 N    0.897
   702   1 H    0.929 --   689 N    0.913
   703  15 P    5.401 --   705 O    1.790   704 O    1.356   678 O    1.114
                           706 O    1.080
   704   8 O    2.267 --   703 P    1.356   776 H    0.745
   705   8 O    1.988 --   703 P    1.790
   706   8 O    2.217 --   703 P    1.080   707 C    0.935
   707   6 C    3.921 --   708 C    0.979   723 H    0.965   722 H    0.962
                           706 O    0.935
   708   6 C    3.944 --   707 C    0.979   709 O    0.977   710 C    0.965
                           724 H    0.946
   709   8 O    2.076 --   708 C    0.977   713 C    0.969
   710   6 C    3.931 --   712 C    0.984   708 C    0.965   725 H    0.955
                           711 O    0.953
   711   8 O    2.275 --   733 P    1.107   710 C    0.953
   712   6 C    3.988 --   713 C    0.986   710 C    0.984   726 H    0.969
                           727 H    0.967
   713   6 C    3.924 --   712 C    0.986   709 O    0.969   728 H    0.956
                           714 N    0.934
   714   7 N    3.576 --   721 C    1.202   715 C    1.097   713 C    0.934
                           716 O    0.116
   715   6 C    3.955 --   716 O    1.536   717 N    1.232   714 N    1.097
   716   8 O    1.908 --   715 C    1.536   714 N    0.116   717 N    0.115
   717   7 N    3.054 --   718 C    1.376   715 C    1.232   716 O    0.115
                           719 N    0.112
   718   6 C    3.969 --   717 N    1.376   719 N    1.337   720 C    1.163
   719   7 N    3.420 --   718 C    1.337   730 H    0.930   729 H    0.859
                           717 N    0.112
   720   6 C    3.982 --   721 C    1.662   718 C    1.163   731 H    0.958
   721   6 C    3.964 --   720 C    1.662   714 N    1.202   732 H    0.946
   722   1 H    0.993 --   707 C    0.962
   723   1 H    0.994 --   707 C    0.965
   724   1 H    0.986 --   708 C    0.946
   725   1 H    0.996 --   710 C    0.955
   726   1 H    0.994 --   712 C    0.969
   727   1 H    0.995 --   712 C    0.967
   728   1 H    0.992 --   713 C    0.956
   729   1 H    0.939 --   719 N    0.859
   730   1 H    0.947 --   719 N    0.930
   731   1 H    0.993 --   720 C    0.958
   732   1 H    0.992 --   721 C    0.946
   733  15 P    5.438 --   735 O    1.749   734 O    1.380   736 O    1.136
                           711 O    1.107
   734   8 O    2.276 --   733 P    1.380   777 H    0.740
   735   8 O    1.948 --   733 P    1.749
   736   8 O    2.257 --   733 P    1.136   737 C    0.926
   737   6 C    3.913 --   738 C    0.977   756 H    0.962   755 H    0.960
                           736 O    0.926
   738   6 C    3.939 --   740 C    0.979   737 C    0.977   757 H    0.953
                           739 O    0.946
   739   8 O    2.056 --   743 C    0.970   738 C    0.946
   740   6 C    3.957 --   741 O    0.992   742 C    0.983   738 C    0.979
                           758 H    0.958
   741   8 O    1.910 --   740 C    0.992   759 H    0.845
   742   6 C    3.991 --   743 C    0.993   740 C    0.983   761 H    0.974
                           760 H    0.967
   743   6 C    3.937 --   742 C    0.993   739 O    0.970   744 N    0.969
                           762 H    0.945
   744   7 N    3.583 --   745 C    1.201   754 C    1.134   743 C    0.969
                           746 N    0.117
   745   6 C    3.952 --   746 N    1.630   744 N    1.201   763 H    0.953
   746   7 N    2.999 --   745 C    1.630   747 C    1.156   744 N    0.117
   747   6 C    3.948 --   754 C    1.319   746 N    1.156   748 C    1.148
   748   6 C    3.950 --   749 O    1.528   750 N    1.154   747 C    1.148
   749   8 O    1.889 --   748 C    1.528   750 N    0.116
   750   7 N    3.558 --   751 C    1.223   748 C    1.154   764 H    0.865
                           749 O    0.116
   751   6 C    3.967 --   752 N    1.356   753 N    1.284   750 N    1.223
   752   7 N    3.422 --   751 C    1.356   765 H    0.906   766 H    0.903
   753   7 N    2.959 --   754 C    1.307   751 C    1.284
   754   6 C    3.958 --   747 C    1.319   753 N    1.307   744 N    1.134
   755   1 H    0.993 --   737 C    0.960
   756   1 H    0.993 --   737 C    0.962
   757   1 H    0.990 --   738 C    0.953
   758   1 H    0.995 --   740 C    0.958
   759   1 H    0.859 --   741 O    0.845
   760   1 H    0.997 --   742 C    0.967
   761   1 H    0.995 --   742 C    0.974
   762   1 H    0.996 --   743 C    0.945
   763   1 H    0.996 --   745 C    0.953
   764   1 H    0.939 --   750 N    0.865
   765   1 H    0.945 --   752 N    0.906
   766   1 H    0.923 --   752 N    0.903
   767   1 H    0.773 --   413 O    0.733
   768   1 H    0.767 --   446 O    0.734
   769   1 H    0.766 --   476 O    0.732
   770   1 H    0.750 --   509 O    0.713
   771   1 H    0.760 --   541 O    0.725
   772   1 H    0.763 --   573 O    0.729
   773   1 H    0.756 --   605 O    0.721
   774   1 H    0.743 --   637 O    0.679
   775   1 H    0.775 --   671 O    0.737
   776   1 H    0.782 --   704 O    0.745
   777   1 H    0.783 --   734 O    0.740
   778   1 H    0.776 --    30 O    0.739
   779   1 H    0.761 --    63 O    0.727
   780   1 H    0.756 --    94 O    0.722
   781   1 H    0.768 --   127 O    0.732
   782   1 H    0.778 --   159 O    0.739
   783   1 H    0.783 --   191 O    0.736
   784   1 H    0.791 --   223 O    0.751
   785   1 H    0.770 --   255 O    0.734
   786   1 H    0.781 --   289 O    0.738
   787   1 H    0.770 --   321 O    0.730
   788   1 H    0.754 --   352 O    0.718
 ---------------------------------------------------------------------------

Topologies differ in total number of bonds
Writing topology from bond orders to xtbtopo.mol

molecular dipole:
                 x           y           z       tot (Debye)
 q only:       11.742       1.688      17.856
   full:       13.836      -0.288      17.799      57.306
molecular quadrupole (traceless):
                xx          xy          yy          xz          yz          zz
 q only:       79.807     674.044   -1086.265    1076.791     664.529    1006.457
  q+dip:      234.978     722.578   -1253.933    1195.258     516.519    1018.955
   full:      217.353     724.881   -1272.830    1201.400     529.967    1055.477


           -------------------------------------------------
          | TOTAL ENERGY            -1569.947738838588 Eh   |
          | GRADIENT NORM               0.972026836742 Eh/α |
          | HOMO-LUMO GAP               2.148650438821 eV   |
           -------------------------------------------------
########################################################################
[WARNING] Runtime exception occurred
-2- restart_readRestart: Dimension missmatch in restart file.
-1- restart_readRestart: Number of electron missmatch in restart file.
########################################################################

------------------------------------------------------------------------
 * finished run on 2023/03/09 at 13:52:19.228     
------------------------------------------------------------------------
 total:
 * wall-time:     0 d,  0 h,  0 min, 15.758 sec
 *  cpu-time:     0 d,  0 h,  2 min, 25.216 sec
 * ratio c/w:     9.216 speedup
 SCF:
 * wall-time:     0 d,  0 h,  0 min, 14.599 sec
 *  cpu-time:     0 d,  0 h,  2 min, 18.033 sec
 * ratio c/w:     9.455 speedup

