      -----------------------------------------------------------      
     |                   =====================                   |     
     |                           x T B                           |     
     |                   =====================                   |     
     |                         S. Grimme                         |     
     |          Mulliken Center for Theoretical Chemistry        |     
     |                    University of Bonn                     |     
      -----------------------------------------------------------      

   * xtb version 6.5.1 (579679a) compiled by 'ehlert@majestix' on 2022-07-11

   xtb is free software: you can redistribute it and/or modify it under
   the terms of the GNU Lesser General Public License as published by
   the Free Software Foundation, either version 3 of the License, or
   (at your option) any later version.
   
   xtb is distributed in the hope that it will be useful,
   but WITHOUT ANY WARRANTY; without even the implied warranty of
   MERCHANTABILITY or FITNESS FOR A PARTICULAR PURPOSE.  See the
   GNU Lesser General Public License for more details.
   
   Cite this work as:
   * C. Bannwarth, E. Caldeweyher, S. Ehlert, A. Hansen, P. Pracht,
     J. Seibert, S. Spicher, S. Grimme, WIREs Comput. Mol. Sci., 2020, 11,
     e01493. DOI: 10.1002/wcms.1493
   
   for GFN2-xTB:
   * C. Bannwarth, S. Ehlert and S. Grimme., J. Chem. Theory Comput., 2019,
     15, 1652-1671. DOI: 10.1021/acs.jctc.8b01176
   for GFN1-xTB:
   * S. Grimme, C. Bannwarth, P. Shushkov, J. Chem. Theory Comput., 2017,
     13, 1989-2009. DOI: 10.1021/acs.jctc.7b00118
   for GFN0-xTB:
   * P. Pracht, E. Caldeweyher, S. Ehlert, S. Grimme, ChemRxiv, 2019, preprint.
     DOI: 10.26434/chemrxiv.8326202.v1
   for GFN-FF:
   * S. Spicher and S. Grimme, Angew. Chem. Int. Ed., 2020, 59, 15665-15673.
     DOI: 10.1002/anie.202004239
   
   for ALPB and GBSA implicit solvation:
   * S. Ehlert, M. Stahn, S. Spicher, S. Grimme, J. Chem. Theory Comput.,
     2021, 17, 4250-4261. DOI: 10.1021/acs.jctc.1c00471
   
   for DFT-D4:
   * E. Caldeweyher, C. Bannwarth and S. Grimme, J. Chem. Phys., 2017,
     147, 034112. DOI: 10.1063/1.4993215
   * E. Caldeweyher, S. Ehlert, A. Hansen, H. Neugebauer, S. Spicher,
     C. Bannwarth and S. Grimme, J. Chem. Phys., 2019, 150, 154122.
     DOI: 10.1063/1.5090222
   * E. Caldeweyher, J.-M. Mewes, S. Ehlert and S. Grimme, Phys. Chem. Chem. Phys.
     2020, 22, 8499-8512. DOI: 10.1039/D0CP00502A
   
   for sTDA-xTB:
   * S. Grimme and C. Bannwarth, J. Chem. Phys., 2016, 145, 054103.
     DOI: 10.1063/1.4959605
   
   in the mass-spec context:
   * V. Asgeirsson, C. Bauer and S. Grimme, Chem. Sci., 2017, 8, 4879.
     DOI: 10.1039/c7sc00601b
   * J. Koopman and S. Grimme, ACS Omega 2019, 4, 12, 15120-15133.
     DOI: 10.1021/acsomega.9b02011
   
   for metadynamics refer to:
   * S. Grimme, J. Chem. Theory Comput., 2019, 155, 2847-2862
     DOI: 10.1021/acs.jctc.9b00143
   
   for SPH calculations refer to:
   * S. Spicher and S. Grimme, J. Chem. Theory Comput., 2021, 17, 1701-1714
     DOI: 10.1021/acs.jctc.0c01306
   
   with help from (in alphabetical order)
   P. Atkinson, C. Bannwarth, F. Bohle, G. Brandenburg, E. Caldeweyher
   M. Checinski, S. Dohm, S. Ehlert, S. Ehrlich, I. Gerasimov, C. Hölzer
   A. Katbashev, J. Koopman, C. Lavigne, S. Lehtola, F. März, M. Müller,
   F. Musil, H. Neugebauer, J. Pisarek, C. Plett, P. Pracht, F. Pultar,
   J. Seibert, P. Shushkov, S. Spicher, M. Stahn, M. Steiner, T. Strunk,
   J. Stückrath, T. Rose, and J. Unsleber
   
 * started run on 2023/03/09 at 13:52:06.478     

           -------------------------------------------------
          |                Calculation Setup                |
           -------------------------------------------------

          program call               : /N/u/schandy/BigRed3/bin/xtb-6.5.1/bin/xtb 2lar.xyz --alpb water
          hostname                   : nid00006
          coordinate file            : 2lar.xyz
          omp threads                :                    10

   ID    Z sym.   atoms
    1    8 O      1, 4, 6, 32-34, 37, 39, 44, 47, 64-66, 69, 71, 79, 97-99,
                  102, 104, 112, 130-132, 135, 137, 142, 145, 169, 177, 179,
                  181, 182, 198-200, 203, 205, 210, 228-230, 233, 235, 240,
                  243, 260-262, 265, 267, 272, 290, 293, 295, 297, 304,
                  323-325, 328, 330, 332, 356-358, 361, 363, 365, 372,
                  390-392, 395, 397, 399, 403, 421-423, 426, 428, 430,
                  454-456, 459, 461, 463, 467, 485-487, 490, 492, 494, 498,
                  516-518, 521, 523, 525, 549-551, 554, 556, 558, 562, 565
    2    6 C      2, 3, 5, 7, 8, 10, 12, 13, 16, 18, 35, 36, 38, 40, 41, 43,
                  46, 48-50, 67, 68, 70, 72, 73, 75, 77, 78, 81, 84, 100,
                  101, 103, 105, 106, 108, 110, 111, 114, 117, 133, 134, 136,
                  138, 139, 141, 144, 146-148, 163, 166-168, 171, 174-176,
                  178, 180, 201, 202, 204, 206, 207, 209, 212, 214, 215, 231,
                  232, 234, 236, 237, 239, 242, 244-246, 263, 264, 266, 268,
                  269, 271, 274, 276, 277, 291, 292, 294, 296, 298, 300, 302,
                  303, 306, 309, 326, 327, 329, 331, 333, 335, 337, 338, 341,
                  343, 359, 360, 362, 364, 366, 368, 370, 371, 374, 377, 393,
                  394, 396, 398, 400, 402, 405, 407, 408, 424, 425, 427, 429,
                  431, 433, 435, 436, 439, 441, 457, 458, 460, 462, 464, 466,
                  469, 471, 472, 488, 489, 491, 493, 495, 497, 500, 502, 503,
                  519, 520, 522, 524, 526, 528, 530, 531, 534, 536, 552, 553,
                  555, 557, 559, 561, 564, 566, 567
    3    7 N      9, 11, 14, 15, 17, 42, 45, 74, 76, 80, 82, 83, 107, 109,
                  113, 115, 116, 140, 143, 162, 164, 165, 170, 172, 208, 211,
                  213, 238, 241, 270, 273, 275, 299, 301, 305, 307, 308, 334,
                  336, 339, 340, 342, 367, 369, 373, 375, 376, 401, 404, 406,
                  432, 434, 437, 438, 440, 465, 468, 470, 496, 499, 501, 527,
                  529, 532, 533, 535, 560, 563
    4    1 H      19-30, 51-62, 85-95, 118-128, 149-160, 183-196, 216-226,
                  247-258, 278-289, 310-321, 344-354, 378-388, 409-419,
                  442-452, 473-483, 504-514, 537-547, 568-594
    5   15 P      31, 63, 96, 129, 161, 197, 227, 259, 322, 355, 389, 420,
                  453, 484, 515, 548
    6    5 B      173

molecular fragmentation (1/2 indicates fragments):
111111111111111111111111111111111111111111111111111111111111111111111111
111111111111111111111111111111111111111111111111111111111111111111111111
111111111111111111111111111111111111111111111111111111111111111111111111
111111111111111111111111111111111111111111111111111111111111111111111111
122222222222222222222222222222222222222222222222222222222222222222222222
222222222222222222222222222222222222222222222222222222222222222222222222
222222222222222222222222222222222222222222222222222222222222222222222222
222222222222222222222222222222222222222222222222222222222222222222222222
222222222211111111
# atoms in fragment 1/2:   297   297
 fragment masses (1/2) :     2727.64     2837.78
CMA distance (Bohr)    :   8.026
constraining FC (au)   :  0.0500

           -------------------------------------------------
          |                 G F N 2 - x T B                 |
           -------------------------------------------------

        Reference                      10.1021/acs.jctc.8b01176
      * Hamiltonian:
        H0-scaling (s, p, d)           1.850000    2.230000    2.230000
        zeta-weighting                 0.500000
      * Dispersion:
        s8                             2.700000
        a1                             0.520000
        a2                             5.000000
        s9                             5.000000
      * Repulsion:
        kExp                           1.500000    1.000000
        rExp                           1.000000
      * Coulomb:
        alpha                          2.000000
        third order                    shell-resolved
        anisotropic                    true
        a3                             3.000000
        a5                             4.000000
        cn-shift                       1.200000
        cn-exp                         4.000000
        max-rad                        5.000000

      * Solvation model:               ALPB
        Solvent                        water
        Parameter file                 internal GFN2-xTB/ALPB
        Dielectric constant                8.0200E+01
        Reference state                gsolv [1 M gas/solution]
        Free energy shift                  1.0808E-03 Eh       6.7819E-01 kcal/mol
        Temperature                        2.9815E+02 K
        Density                            1.0000E+00 kg/L
        Solvent mass                       1.8000E+01 g/mol
        Interaction kernel             P16
        Born radius scaling (c1)           1.4744E+00
        Born radii integrator          GBOBC
        Born offset                        0.0000E+00 a0       0.0000E+00 AA
        H-bond correction              true
        Ion screening                  false
        Surface tension                    1.0000E-05 Eh       1.5569E+01 dyn/cm
        Grid points                               230 per atom

          ...................................................
          :                      SETUP                      :
          :.................................................:
          :  # basis functions                1803          :
          :  # atomic orbitals                1787          :
          :  # shells                          981          :
          :  # electrons                      2014          :
          :  max. iterations                   250          :
          :  Hamiltonian                  GFN2-xTB          :
          :  restarted?                      false          :
          :  GBSA solvation                   true          :
          :  PC potential                    false          :
          :  electronic temp.          300.0000000     K    :
          :  accuracy                    1.0000000          :
          :  -> integral cutoff          0.2500000E+02      :
          :  -> integral neglect         0.1000000E-07      :
          :  -> SCF convergence          0.1000000E-05 Eh   :
          :  -> wf. convergence          0.1000000E-03 e    :
          :  Broyden damping             0.4000000          :
          ...................................................

 iter      E             dE          RMSdq      gap      omega  full diag
   1  -1194.4136988 -0.119441E+04  0.594E+00    2.65       0.0  T
   2  -1197.1524963 -0.273880E+01  0.339E+00    2.13       1.0  T
   3  -1197.3125247 -0.160028E+00  0.146E+00    2.63       1.0  T
   4  -1197.5624207 -0.249896E+00  0.644E-01    2.24       1.0  T
   5  -1197.6530179 -0.905972E-01  0.301E-01    2.32       1.0  T
   6  -1197.6640630 -0.110452E-01  0.129E-01    2.30       1.0  T
   7  -1197.6667258 -0.266278E-02  0.649E-02    2.29       1.0  T
   8  -1197.6670887 -0.362835E-03  0.374E-02    2.29       1.0  T
   9  -1197.6672915 -0.202876E-03  0.165E-02    2.29       1.0  T
  10  -1197.6673378 -0.462871E-04  0.660E-03    2.29       1.0  T
  11  -1197.6673423 -0.451174E-05  0.357E-03    2.29       1.1  T
  12  -1197.6673447 -0.234733E-05  0.150E-03    2.29       2.7  T
  13  -1197.6673450 -0.316788E-06  0.889E-04    2.29       4.6  T
  14  -1197.6673451 -0.112489E-06  0.461E-04    2.29       8.9  T

   *** convergence criteria satisfied after 14 iterations ***

         #    Occupation            Energy/Eh            Energy/eV
      -------------------------------------------------------------
         1        2.0000           -0.7755115             -21.1027
       ...           ...                  ...                  ...
      1001        2.0000           -0.3833950             -10.4327
      1002        2.0000           -0.3807212             -10.3600
      1003        2.0000           -0.3790171             -10.3136
      1004        2.0000           -0.3789118             -10.3107
      1005        2.0000           -0.3742986             -10.1852
      1006        2.0000           -0.3731600             -10.1542
      1007        2.0000           -0.3721968             -10.1280 (HOMO)
      1008                         -0.2878928              -7.8340 (LUMO)
      1009                         -0.2787993              -7.5865
      1010                         -0.2781773              -7.5696
      1011                         -0.2745875              -7.4719
      1012                         -0.2742224              -7.4620
       ...                                ...                  ...
      1787                          1.3983810              38.0519
      -------------------------------------------------------------
                  HL-Gap            0.0843040 Eh            2.2940 eV
             Fermi-level           -0.3300448 Eh           -8.9810 eV

 SCC (total)                   0 d,  0 h,  0 min,  7.525 sec
 SCC setup                      ...        0 min,  0.053 sec (  0.706%)
 Dispersion                     ...        0 min,  0.144 sec (  1.918%)
 classical contributions        ...        0 min,  0.003 sec (  0.044%)
 integral evaluation            ...        0 min,  0.373 sec (  4.958%)
 iterations                     ...        0 min,  5.476 sec ( 72.774%)
 molecular gradient             ...        0 min,  1.401 sec ( 18.621%)
 printout                       ...        0 min,  0.074 sec (  0.977%)

         :::::::::::::::::::::::::::::::::::::::::::::::::::::
         ::                     SUMMARY                     ::
         :::::::::::::::::::::::::::::::::::::::::::::::::::::
         :: total energy           -1186.260299333220 Eh    ::
         :: total w/o Gsasa/hb     -1186.038355710184 Eh    ::
         :: gradient norm              0.593806361582 Eh/a0 ::
         :: HOMO-LUMO gap              2.294028553136 eV    ::
         ::.................................................::
         :: SCC energy             -1197.667345102097 Eh    ::
         :: -> isotropic ES            4.357657222858 Eh    ::
         :: -> anisotropic ES         -0.287217377603 Eh    ::
         :: -> anisotropic XC          0.172888330906 Eh    ::
         :: -> dispersion             -1.043286176863 Eh    ::
         :: -> Gsolv                  -0.887968541532 Eh    ::
         ::    -> Gelec               -0.666024918495 Eh    ::
         ::    -> Gsasa                0.052810837838 Eh    ::
         ::    -> Ghb                 -0.275835220573 Eh    ::
         ::    -> Gshift               0.001080759698 Eh    ::
         :: repulsion energy          11.318362218681 Eh    ::
         :: add. restraining           0.000000000000 Eh    ::
         :: total charge               0.000000000000 e     ::
         :::::::::::::::::::::::::::::::::::::::::::::::::::::

           -------------------------------------------------
          |                Property Printout                |
           -------------------------------------------------

    * Orbital Energies and Occupations

         #    Occupation            Energy/Eh            Energy/eV
      -------------------------------------------------------------
         1        2.0000           -0.7755115             -21.1027
       ...           ...                  ...                  ...
       995        2.0000           -0.3909080             -10.6371
       996        2.0000           -0.3885575             -10.5732
       997        2.0000           -0.3870562             -10.5323
       998        2.0000           -0.3859828             -10.5031
       999        2.0000           -0.3853013             -10.4846
      1000        2.0000           -0.3845809             -10.4650
      1001        2.0000           -0.3833950             -10.4327
      1002        2.0000           -0.3807212             -10.3600
      1003        2.0000           -0.3790171             -10.3136
      1004        2.0000           -0.3789118             -10.3107
      1005        2.0000           -0.3742986             -10.1852
      1006        2.0000           -0.3731600             -10.1542
      1007        2.0000           -0.3721968             -10.1280 (HOMO)
      1008                         -0.2878928              -7.8340 (LUMO)
      1009                         -0.2787993              -7.5865
      1010                         -0.2781773              -7.5696
      1011                         -0.2745875              -7.4719
      1012                         -0.2742224              -7.4620
      1013                         -0.2714471              -7.3865
      1014                         -0.2695108              -7.3338
      1015                         -0.2683817              -7.3030
      1016                         -0.2674058              -7.2765
      1017                         -0.2672100              -7.2712
      1018                         -0.2640091              -7.1841
       ...                                ...                  ...
      1787                          1.3983810              38.0519
      -------------------------------------------------------------
                  HL-Gap            0.0843040 Eh            2.2940 eV
             Fermi-level           -0.3300448 Eh           -8.9810 eV

 * generalized Born model for continuum solvation

     #   Z     Born rad/Å   SASA/Å²    H-bond
     1   8 O        2.024     7.731    -0.001
     2   6 C        2.326     0.613    -0.000
     3   6 C        2.512     0.149    -0.000
     4   8 O        2.335     9.014    -0.001
     5   6 C        2.597     0.141    -0.000
     6   8 O        2.329     3.691    -0.000
     7   6 C        2.611     0.002    -0.000
     8   6 C        2.664     0.841    -0.000
     9   7 N        2.731     1.863    -0.000
    10   6 C        2.617     6.986    -0.001
    11   7 N        2.394    15.315    -0.001
    12   6 C        2.967     3.471    -0.000
    13   6 C        2.749     3.390    -0.000
    14   7 N        2.233     4.198    -0.000
    15   7 N        2.535     0.813    -0.000
    16   6 C        2.638     4.760    -0.000
    17   7 N        2.449     8.745    -0.001
    18   6 C        3.021     3.684    -0.000
    19   1 H        1.822    19.051    -0.032
    20   1 H        1.832    19.140    -0.032
    21   1 H        1.913    17.183    -0.029
    22   1 H        1.979     6.907    -0.012
    23   1 H        2.045     0.610    -0.001
    24   1 H        2.023     0.030    -0.000
    25   1 H        1.964    14.607    -0.025
    26   1 H        1.946     9.820    -0.016
    27   1 H        1.934     2.436    -0.004
    28   1 H        1.876    21.990    -0.037
    29   1 H        1.983     8.300    -0.014
    30   1 H        1.712    24.606    -0.041
    31  15 P        2.762     8.227    -0.002
    32   8 O        2.067    14.715    -0.002
    33   8 O        2.082    25.659    -0.003
    34   8 O        2.318     0.242    -0.000
    35   6 C        2.444     0.377    -0.000
    36   6 C        2.557     0.147    -0.000
    37   8 O        2.420     4.218    -0.000
    38   6 C        2.628     0.090    -0.000
    39   8 O        2.335     3.247    -0.000
    40   6 C        2.601     0.431    -0.000
    41   6 C        2.730     0.182    -0.000
    42   7 N        2.698     0.070    -0.000
    43   6 C        2.709     0.005    -0.000
    44   8 O        2.195     8.964    -0.001
    45   7 N        2.513     0.025    -0.000
    46   6 C        2.671     1.998    -0.000
    47   8 O        2.181    10.464    -0.001
    48   6 C        2.730     2.473    -0.000
    49   6 C        2.427     2.739    -0.000
    50   6 C        2.760     2.967    -0.000
    51   1 H        1.888    11.365    -0.019
    52   1 H        1.881    13.598    -0.023
    53   1 H        1.930    16.883    -0.028
    54   1 H        2.008     6.670    -0.011
    55   1 H        2.000     9.719    -0.016
    56   1 H        2.012     4.242    -0.007
    57   1 H        2.029     7.537    -0.013
    58   1 H        2.245     0.000    -0.000
    59   1 H        1.932     6.491    -0.011
    60   1 H        1.894    11.443    -0.019
    61   1 H        1.867    20.915    -0.035
    62   1 H        2.054     1.894    -0.003
    63  15 P        2.775     6.323    -0.001
    64   8 O        2.077    12.132    -0.001
    65   8 O        2.100    23.576    -0.003
    66   8 O        2.313     0.651    -0.000
    67   6 C        2.439     0.356    -0.000
    68   6 C        2.554     0.099    -0.000
    69   8 O        2.385     9.235    -0.001
    70   6 C        2.625     0.024    -0.000
    71   8 O        2.331     3.744    -0.000
    72   6 C        2.630     0.002    -0.000
    73   6 C        2.702     0.529    -0.000
    74   7 N        2.795     1.258    -0.000
    75   6 C        2.714     3.280    -0.000
    76   7 N        2.527     6.665    -0.000
    77   6 C        3.032     0.587    -0.000
    78   6 C        2.761     0.188    -0.000
    79   8 O        2.260     3.979    -0.000
    80   7 N        2.647     0.000    -0.000
    81   6 C        2.780     1.501    -0.000
    82   7 N        2.281     2.547    -0.000
    83   7 N        2.557     7.026    -0.000
    84   6 C        3.098     3.080    -0.000
    85   1 H        1.880    15.101    -0.025
    86   1 H        1.882    14.803    -0.025
    87   1 H        1.934    16.924    -0.028
    88   1 H        2.010     6.371    -0.011
    89   1 H        2.056     4.458    -0.007
    90   1 H        2.047     0.046    -0.000
    91   1 H        1.990    14.220    -0.024
    92   1 H        2.032     0.895    -0.002
    93   1 H        2.310     0.000    -0.000
    94   1 H        1.981     1.791    -0.003
    95   1 H        1.902    20.503    -0.034
    96  15 P        2.769     8.132    -0.002
    97   8 O        2.068    12.952    -0.001
    98   8 O        2.089    25.506    -0.003
    99   8 O        2.316     1.567    -0.000
   100   6 C        2.448     0.394    -0.000
   101   6 C        2.588     0.049    -0.000
   102   8 O        2.425     4.254    -0.000
   103   6 C        2.647     0.001    -0.000
   104   8 O        2.381     0.691    -0.000
   105   6 C        2.681     0.015    -0.000
   106   6 C        2.727     0.208    -0.000
   107   7 N        2.887     0.000     0.000
   108   6 C        2.744     0.351    -0.000
   109   7 N        2.507    10.931    -0.001
   110   6 C        3.093     0.017    -0.000
   111   6 C        2.762     0.035    -0.000
   112   8 O        2.226     8.289    -0.001
   113   7 N        2.660     0.000    -0.000
   114   6 C        2.805     0.000    -0.000
   115   7 N        2.292     0.238    -0.000
   116   7 N        2.619     2.895    -0.000
   117   6 C        3.223     0.000     0.000
   118   1 H        1.901    12.504    -0.021
   119   1 H        1.881    13.891    -0.023
   120   1 H        1.978    13.972    -0.023
   121   1 H        2.014     3.967    -0.007
   122   1 H        2.217     0.000     0.000
   123   1 H        2.058     1.027    -0.002
   124   1 H        1.995    12.892    -0.022
   125   1 H        2.020     3.698    -0.006
   126   1 H        2.326     0.000     0.000
   127   1 H        1.992     0.961    -0.002
   128   1 H        1.912    17.178    -0.029
   129  15 P        2.780     7.922    -0.002
   130   8 O        2.076    12.100    -0.001
   131   8 O        2.093    22.078    -0.002
   132   8 O        2.348     0.423    -0.000
   133   6 C        2.465     0.406    -0.000
   134   6 C        2.575     0.109    -0.000
   135   8 O        2.414     5.679    -0.001
   136   6 C        2.643     0.000    -0.000
   137   8 O        2.424     5.556    -0.001
   138   6 C        2.645     0.005    -0.000
   139   6 C        2.706     0.498    -0.000
   140   7 N        2.727     0.064    -0.000
   141   6 C        2.705     0.109    -0.000
   142   8 O        2.177    11.609    -0.001
   143   7 N        2.537     0.000    -0.000
   144   6 C        2.743     0.000     0.000
   145   8 O        2.239     5.010    -0.001
   146   6 C        2.787     0.007    -0.000
   147   6 C        2.436     2.500    -0.000
   148   6 C        2.816     0.145    -0.000
   149   1 H        1.906    12.370    -0.021
   150   1 H        1.887    14.577    -0.024
   151   1 H        1.937    17.297    -0.029
   152   1 H        2.011     4.490    -0.008
   153   1 H        2.068     2.076    -0.003
   154   1 H        2.056     0.750    -0.001
   155   1 H        1.982    12.770    -0.021
   156   1 H        2.193     0.002    -0.000
   157   1 H        1.901    11.134    -0.019
   158   1 H        1.894     9.707    -0.016
   159   1 H        1.891    14.462    -0.024
   160   1 H        2.090     1.637    -0.003
   161  15 P        2.918     4.036    -0.001
   162   7 N        2.730     0.000     0.000
   163   6 C        2.891    -0.005     0.000
   164   7 N        2.358     0.050    -0.000
   165   7 N        2.649     2.487    -0.000
   166   6 C        3.235     0.135    -0.000
   167   6 C        3.111     0.004    -0.000
   168   6 C        2.786     0.006    -0.000
   169   8 O        2.226     6.417    -0.001
   170   7 N        2.533     4.877    -0.000
   171   6 C        2.743     1.500    -0.000
   172   7 N        2.885     0.130    -0.000
   173   5 B        2.560     7.138     0.000
   174   6 C        2.749     0.481    -0.000
   175   6 C        2.654     0.005    -0.000
   176   6 C        2.642     0.033    -0.000
   177   8 O        2.357     2.320    -0.000
   178   6 C        2.596     0.053    -0.000
   179   8 O        2.444     3.260    -0.000
   180   6 C        2.520     0.263    -0.000
   181   8 O        2.424     1.888    -0.000
   182   8 O        2.135    16.111    -0.002
   183   1 H        2.414     0.000     0.000
   184   1 H        2.008     7.319    -0.012
   185   1 H        2.030    17.510    -0.029
   186   1 H        2.006    22.631    -0.038
   187   1 H        2.022    18.843    -0.032
   188   1 H        2.013    13.269    -0.022
   189   1 H        2.087     1.423    -0.002
   190   1 H        2.051     0.979    -0.002
   191   1 H        2.073     0.051    -0.000
   192   1 H        1.947    10.155    -0.017
   193   1 H        2.005     7.935    -0.013
   194   1 H        1.992    13.872    -0.023
   195   1 H        1.944    10.180    -0.017
   196   1 H        1.978     8.483    -0.014
   197  15 P        2.773     8.485    -0.002
   198   8 O        2.072    12.977    -0.001
   199   8 O        2.087    26.424    -0.003
   200   8 O        2.312     1.645    -0.000
   201   6 C        2.448     0.349    -0.000
   202   6 C        2.574     0.088    -0.000
   203   8 O        2.445     3.468    -0.000
   204   6 C        2.644     0.010    -0.000
   205   8 O        2.359     2.999    -0.000
   206   6 C        2.660     0.002    -0.000
   207   6 C        2.743     0.054    -0.000
   208   7 N        2.794     0.000     0.000
   209   6 C        2.812     0.000     0.000
   210   8 O        2.260     3.419    -0.000
   211   7 N        2.663     0.000     0.000
   212   6 C        2.814     0.000     0.000
   213   7 N        2.303     0.397    -0.000
   214   6 C        2.707     0.114    -0.000
   215   6 C        2.763     0.011    -0.000
   216   1 H        1.904    12.113    -0.020
   217   1 H        1.881    15.268    -0.026
   218   1 H        1.954    15.633    -0.026
   219   1 H        2.005     5.664    -0.010
   220   1 H        2.117     0.000     0.000
   221   1 H        2.049     0.758    -0.001
   222   1 H        2.003     9.570    -0.016
   223   1 H        2.002     1.130    -0.002
   224   1 H        1.913    16.928    -0.028
   225   1 H        1.977    14.888    -0.025
   226   1 H        2.055     2.841    -0.005
   227  15 P        2.775     9.623    -0.002
   228   8 O        2.069    15.422    -0.002
   229   8 O        2.091    21.577    -0.002
   230   8 O        2.328     0.832    -0.000
   231   6 C        2.454     0.337    -0.000
   232   6 C        2.578     0.078    -0.000
   233   8 O        2.444     2.536    -0.000
   234   6 C        2.624     0.001    -0.000
   235   8 O        2.328     6.646    -0.001
   236   6 C        2.638     0.012    -0.000
   237   6 C        2.740     0.020    -0.000
   238   7 N        2.767     0.000     0.000
   239   6 C        2.778     0.000     0.000
   240   8 O        2.251     3.774    -0.000
   241   7 N        2.572     0.000     0.000
   242   6 C        2.739     0.000     0.000
   243   8 O        2.226     4.435    -0.000
   244   6 C        2.781     0.000    -0.000
   245   6 C        2.439     2.312    -0.000
   246   6 C        2.803     0.049    -0.000
   247   1 H        1.904    10.981    -0.018
   248   1 H        1.885    13.181    -0.022
   249   1 H        1.959    15.842    -0.027
   250   1 H        2.001     4.333    -0.007
   251   1 H        2.068     1.867    -0.003
   252   1 H        2.074     0.566    -0.001
   253   1 H        2.014     7.120    -0.012
   254   1 H        2.281     0.000     0.000
   255   1 H        1.902     6.834    -0.011
   256   1 H        1.879    13.907    -0.023
   257   1 H        1.931     5.692    -0.010
   258   1 H        2.070     2.531    -0.004
   259  15 P        2.756     9.630    -0.002
   260   8 O        2.066    26.992    -0.003
   261   8 O        2.071    16.569    -0.002
   262   8 O        2.290     2.159    -0.000
   263   6 C        2.430     0.309    -0.000
   264   6 C        2.522     0.190    -0.000
   265   8 O        2.404     2.182    -0.000
   266   6 C        2.476     0.053    -0.000
   267   8 O        2.042    15.293    -0.002
   268   6 C        2.509     0.609    -0.000
   269   6 C        2.660     0.049    -0.000
   270   7 N        2.677     0.014    -0.000
   271   6 C        2.677     3.315    -0.000
   272   8 O        2.183     8.992    -0.001
   273   7 N        2.531     2.403    -0.000
   274   6 C        2.727     4.210    -0.000
   275   7 N        2.260     3.788    -0.000
   276   6 C        2.672     4.676    -0.000
   277   6 C        2.713     1.221    -0.000
   278   1 H        1.896    12.588    -0.021
   279   1 H        1.867    15.361    -0.026
   280   1 H        1.923    16.097    -0.027
   281   1 H        1.927    11.482    -0.019
   282   1 H        1.728    22.995    -0.039
   283   1 H        1.959    13.409    -0.023
   284   1 H        1.905    16.065    -0.027
   285   1 H        1.960    11.316    -0.019
   286   1 H        1.950     4.955    -0.008
   287   1 H        1.901    12.553    -0.021
   288   1 H        1.975    13.811    -0.023
   289   1 H        2.035     4.691    -0.008
   290   8 O        2.012    15.540    -0.002
   291   6 C        2.318     1.420    -0.000
   292   6 C        2.516     0.117    -0.000
   293   8 O        2.343     9.031    -0.001
   294   6 C        2.612     0.006    -0.000
   295   8 O        2.322     5.415    -0.001
   296   6 C        2.625     0.000     0.000
   297   8 O        2.165     8.150    -0.001
   298   6 C        2.676     0.582    -0.000
   299   7 N        2.767     0.815    -0.000
   300   6 C        2.624     7.778    -0.001
   301   7 N        2.401    17.960    -0.001
   302   6 C        2.928     3.199    -0.000
   303   6 C        2.661     3.928    -0.000
   304   8 O        2.162    13.634    -0.002
   305   7 N        2.575     1.716    -0.000
   306   6 C        2.742     4.351    -0.000
   307   7 N        2.263     3.925    -0.000
   308   7 N        2.553     5.979    -0.000
   309   6 C        3.072     3.056    -0.000
   310   1 H        1.818    19.937    -0.033
   311   1 H        1.833    19.424    -0.033
   312   1 H        1.931    16.251    -0.027
   313   1 H        2.010     5.552    -0.009
   314   1 H        2.130     1.477    -0.002
   315   1 H        1.908     0.151    -0.000
   316   1 H        1.987    13.803    -0.023
   317   1 H        1.942     9.117    -0.015
   318   1 H        2.245     0.925    -0.002
   319   1 H        1.962     4.205    -0.007
   320   1 H        1.896    17.737    -0.030
   321   1 H        1.730    16.198    -0.027
   322  15 P        2.764     6.768    -0.001
   323   8 O        2.071    25.754    -0.003
   324   8 O        2.084    10.568    -0.001
   325   8 O        2.306     1.806    -0.000
   326   6 C        2.434     0.346    -0.000
   327   6 C        2.570     0.108    -0.000
   328   8 O        2.419     4.428    -0.000
   329   6 C        2.669     0.001    -0.000
   330   8 O        2.340     4.418    -0.000
   331   6 C        2.618     0.109    -0.000
   332   8 O        2.105    13.171    -0.001
   333   6 C        2.727     0.151    -0.000
   334   7 N        2.892     0.000    -0.000
   335   6 C        2.771     1.940    -0.000
   336   7 N        2.558     8.422    -0.001
   337   6 C        3.293     0.051    -0.000
   338   6 C        3.007     0.000     0.000
   339   7 N        2.365     0.023    -0.000
   340   7 N        2.706     0.000     0.000
   341   6 C        2.770     0.101    -0.000
   342   7 N        2.571     4.186    -0.000
   343   6 C        3.298     0.000     0.000
   344   1 H        1.886    12.643    -0.021
   345   1 H        1.878    14.437    -0.024
   346   1 H        1.956    13.430    -0.023
   347   1 H        2.070     3.500    -0.006
   348   1 H        2.096     0.009    -0.000
   349   1 H        1.785    10.150    -0.017
   350   1 H        2.000     9.980    -0.017
   351   1 H        2.060     2.054    -0.003
   352   1 H        2.040     0.064    -0.000
   353   1 H        1.966     8.533    -0.014
   354   1 H        2.031     5.085    -0.009
   355  15 P        2.778     6.800    -0.001
   356   8 O        2.072    11.849    -0.001
   357   8 O        2.093    25.814    -0.003
   358   8 O        2.339     0.987    -0.000
   359   6 C        2.462     0.344    -0.000
   360   6 C        2.594     0.125    -0.000
   361   8 O        2.451     3.781    -0.000
   362   6 C        2.701     0.000     0.000
   363   8 O        2.357     4.463    -0.000
   364   6 C        2.645     0.000     0.000
   365   8 O        2.113     9.370    -0.001
   366   6 C        2.779     0.072    -0.000
   367   7 N        2.994     0.000     0.000
   368   6 C        2.831     1.121    -0.000
   369   7 N        2.582     9.457    -0.001
   370   6 C        3.241     0.001    -0.000
   371   6 C        2.843     0.000    -0.000
   372   8 O        2.255     6.495    -0.001
   373   7 N        2.724     0.000     0.000
   374   6 C        2.874     0.000     0.000
   375   7 N        2.327     0.156    -0.000
   376   7 N        2.663     2.177    -0.000
   377   6 C        3.357     0.000     0.000
   378   1 H        1.909     6.560    -0.011
   379   1 H        1.890    12.882    -0.022
   380   1 H        1.961    14.926    -0.025
   381   1 H        2.120     1.221    -0.002
   382   1 H        2.130     0.000    -0.000
   383   1 H        1.772    14.884    -0.025
   384   1 H        2.026     8.770    -0.015
   385   1 H        2.078     1.538    -0.003
   386   1 H        2.356     0.000     0.000
   387   1 H        2.007     1.003    -0.002
   388   1 H        1.935     9.447    -0.016
   389  15 P        2.788     6.506    -0.001
   390   8 O        2.075    11.762    -0.001
   391   8 O        2.103    21.687    -0.002
   392   8 O        2.348     1.492    -0.000
   393   6 C        2.465     0.362    -0.000
   394   6 C        2.597     0.038    -0.000
   395   8 O        2.430     2.305    -0.000
   396   6 C        2.694     0.004    -0.000
   397   8 O        2.364     3.726    -0.000
   398   6 C        2.655     0.022    -0.000
   399   8 O        2.136    12.054    -0.001
   400   6 C        2.762     0.067    -0.000
   401   7 N        2.857     0.000     0.000
   402   6 C        2.869     0.000     0.000
   403   8 O        2.276     4.524    -0.001
   404   7 N        2.727     0.000     0.000
   405   6 C        2.872     0.012    -0.000
   406   7 N        2.326     0.369    -0.000
   407   6 C        2.757     2.462    -0.000
   408   6 C        2.823     0.246    -0.000
   409   1 H        1.915     8.561    -0.014
   410   1 H        1.886    14.506    -0.024
   411   1 H        1.962    13.943    -0.023
   412   1 H        2.084     3.333    -0.006
   413   1 H        2.114     0.001    -0.000
   414   1 H        1.825     6.405    -0.011
   415   1 H        2.017     7.202    -0.012
   416   1 H        2.032     0.498    -0.001
   417   1 H        1.924    16.467    -0.028
   418   1 H        2.008    11.266    -0.019
   419   1 H        2.142     0.081    -0.000
   420  15 P        2.792     5.528    -0.001
   421   8 O        2.079    11.385    -0.001
   422   8 O        2.102    24.735    -0.003
   423   8 O        2.378     0.141    -0.000
   424   6 C        2.480     0.446    -0.000
   425   6 C        2.594     0.189    -0.000
   426   8 O        2.428     3.424    -0.000
   427   6 C        2.705     0.000     0.000
   428   8 O        2.361     4.567    -0.001
   429   6 C        2.629     0.000     0.000
   430   8 O        2.103    10.418    -0.001
   431   6 C        2.766     0.029    -0.000
   432   7 N        2.940     0.000     0.000
   433   6 C        2.806     0.867    -0.000
   434   7 N        2.607     4.545    -0.000
   435   6 C        3.319     0.000     0.000
   436   6 C        2.984     0.000     0.000
   437   7 N        2.348     0.118    -0.000
   438   7 N        2.665     0.000    -0.000
   439   6 C        2.756     0.166    -0.000
   440   7 N        2.589     2.540    -0.000
   441   6 C        3.338     0.000     0.000
   442   1 H        1.904     7.634    -0.013
   443   1 H        1.906    10.466    -0.018
   444   1 H        1.952    15.710    -0.026
   445   1 H        2.123     0.554    -0.001
   446   1 H        2.094     0.000    -0.000
   447   1 H        1.770    17.306    -0.029
   448   1 H        2.039     3.491    -0.006
   449   1 H        2.079     0.715    -0.001
   450   1 H        2.012     0.861    -0.001
   451   1 H        1.970     7.951    -0.013
   452   1 H        2.017     9.387    -0.016
   453  15 P        2.785     5.530    -0.001
   454   8 O        2.074    13.307    -0.001
   455   8 O        2.102    21.070    -0.002
   456   8 O        2.337     1.529    -0.000
   457   6 C        2.455     0.394    -0.000
   458   6 C        2.588     0.084    -0.000
   459   8 O        2.432     2.196    -0.000
   460   6 C        2.671     0.000     0.000
   461   8 O        2.358     3.386    -0.000
   462   6 C        2.615     0.037    -0.000
   463   8 O        2.110    12.956    -0.001
   464   6 C        2.739     0.051    -0.000
   465   7 N        2.788     0.000     0.000
   466   6 C        2.819     0.000    -0.000
   467   8 O        2.266     4.170    -0.000
   468   7 N        2.684     0.000    -0.000
   469   6 C        2.854     0.010    -0.000
   470   7 N        2.320     0.373    -0.000
   471   6 C        2.749     2.090    -0.000
   472   6 C        2.773     1.079    -0.000
   473   1 H        1.907    10.472    -0.018
   474   1 H        1.886    12.585    -0.021
   475   1 H        1.965    13.810    -0.023
   476   1 H        2.054     3.416    -0.006
   477   1 H        2.066     0.000    -0.000
   478   1 H        1.797     7.666    -0.013
   479   1 H        2.001     9.388    -0.016
   480   1 H        1.994     2.260    -0.004
   481   1 H        1.927    16.183    -0.027
   482   1 H        2.011    11.782    -0.020
   483   1 H        2.081     0.718    -0.001
   484  15 P        2.776     6.704    -0.001
   485   8 O        2.076    14.048    -0.002
   486   8 O        2.087    26.797    -0.003
   487   8 O        2.323     1.407    -0.000
   488   6 C        2.460     0.254    -0.000
   489   6 C        2.581     0.087    -0.000
   490   8 O        2.407     3.898    -0.000
   491   6 C        2.689     0.000    -0.000
   492   8 O        2.355     4.543    -0.001
   493   6 C        2.602     0.000     0.000
   494   8 O        2.098     9.162    -0.001
   495   6 C        2.720     0.067    -0.000
   496   7 N        2.747     0.000     0.000
   497   6 C        2.782     0.000     0.000
   498   8 O        2.239     4.311    -0.000
   499   7 N        2.652     0.000     0.000
   500   6 C        2.851     0.000     0.000
   501   7 N        2.344     0.058    -0.000
   502   6 C        2.741     1.165    -0.000
   503   6 C        2.746     0.900    -0.000
   504   1 H        1.912     7.090    -0.012
   505   1 H        1.894    10.062    -0.017
   506   1 H        1.962    14.058    -0.024
   507   1 H        2.115     1.613    -0.003
   508   1 H        2.065     0.001    -0.000
   509   1 H        1.759    17.669    -0.030
   510   1 H        1.988     7.494    -0.013
   511   1 H        2.021     0.625    -0.001
   512   1 H        1.955     8.682    -0.015
   513   1 H        2.013    11.765    -0.020
   514   1 H        2.059     1.725    -0.003
   515  15 P        2.785     6.524    -0.001
   516   8 O        2.076    15.080    -0.002
   517   8 O        2.096    25.251    -0.003
   518   8 O        2.368     0.072    -0.000
   519   6 C        2.471     0.456    -0.000
   520   6 C        2.584     0.152    -0.000
   521   8 O        2.410     3.971    -0.000
   522   6 C        2.692     0.000     0.000
   523   8 O        2.351     4.494    -0.000
   524   6 C        2.621     0.000     0.000
   525   8 O        2.105     8.608    -0.001
   526   6 C        2.742     0.121    -0.000
   527   7 N        2.898     0.000    -0.000
   528   6 C        2.767     1.000    -0.000
   529   7 N        2.553     6.441    -0.000
   530   6 C        3.209     0.000     0.000
   531   6 C        2.907     0.000     0.000
   532   7 N        2.316     0.097    -0.000
   533   7 N        2.619     0.000    -0.000
   534   6 C        2.691     0.629    -0.000
   535   7 N        2.514     5.531    -0.000
   536   6 C        3.216     0.013    -0.000
   537   1 H        1.910     8.362    -0.014
   538   1 H        1.894    10.590    -0.018
   539   1 H        1.948    15.525    -0.026
   540   1 H        2.103     1.352    -0.002
   541   1 H        2.075     0.000     0.000
   542   1 H        1.767    15.457    -0.026
   543   1 H        2.008    10.274    -0.017
   544   1 H        2.064     0.661    -0.001
   545   1 H        1.993     0.348    -0.001
   546   1 H        1.941    10.865    -0.018
   547   1 H        1.993    11.777    -0.020
   548  15 P        2.771     8.170    -0.002
   549   8 O        2.068    16.015    -0.002
   550   8 O        2.089    22.748    -0.003
   551   8 O        2.322     0.568    -0.000
   552   6 C        2.445     0.314    -0.000
   553   6 C        2.524     0.205    -0.000
   554   8 O        2.363     3.849    -0.000
   555   6 C        2.512     0.122    -0.000
   556   8 O        2.042    17.618    -0.002
   557   6 C        2.513     0.307    -0.000
   558   8 O        2.049    17.169    -0.002
   559   6 C        2.665     0.224    -0.000
   560   7 N        2.670     0.000    -0.000
   561   6 C        2.645     1.750    -0.000
   562   8 O        2.148    13.461    -0.001
   563   7 N        2.451     2.011    -0.000
   564   6 C        2.591     4.254    -0.000
   565   8 O        2.138    15.892    -0.002
   566   6 C        2.610     4.229    -0.000
   567   6 C        2.691     1.384    -0.000
   568   1 H        1.898     8.864    -0.015
   569   1 H        1.881     9.674    -0.016
   570   1 H        1.919    13.570    -0.023
   571   1 H        2.011     7.986    -0.013
   572   1 H        1.743    17.351    -0.029
   573   1 H        1.969    14.007    -0.024
   574   1 H        1.758    15.727    -0.026
   575   1 H        1.963    10.941    -0.018
   576   1 H        2.169     1.914    -0.003
   577   1 H        1.970    14.953    -0.025
   578   1 H        2.068     0.567    -0.001
   579   1 H        1.769    18.853    -0.032
   580   1 H        1.770    18.637    -0.031
   581   1 H        1.764    22.159    -0.037
   582   1 H        1.759    24.742    -0.042
   583   1 H        1.758    26.309    -0.044
   584   1 H        1.757    26.763    -0.045
   585   1 H        1.754    26.670    -0.045
   586   1 H        1.759    26.740    -0.045
   587   1 H        1.783    17.429    -0.029
   588   1 H        1.766    20.799    -0.035
   589   1 H        1.761    23.957    -0.040
   590   1 H        1.762    24.332    -0.041
   591   1 H        1.757    25.333    -0.043
   592   1 H        1.764    23.254    -0.039
   593   1 H        1.762    21.717    -0.036
   594   1 H        1.792    18.248    -0.031

 total SASA / Å² :     3606.744

     #   Z          covCN         q      C6AA      α(0)
     1   8 O        1.654    -0.519    23.307     6.517
     2   6 C        3.672     0.058    19.838     6.384
     3   6 C        3.778     0.094    19.049     6.218
     4   8 O        1.699    -0.318    19.312     5.933
     5   6 C        3.918     0.111    18.714     6.148
     6   8 O        1.657    -0.342    19.752     6.000
     7   6 C        3.819    -0.083    22.072     6.686
     8   6 C        3.713     0.172    17.956     6.055
     9   7 N        2.847    -0.060    22.403     7.030
    10   6 C        3.247     0.108    24.703     8.050
    11   7 N        1.870    -0.304    28.719     7.944
    12   6 C        3.275     0.006    26.528     8.298
    13   6 C        2.909     0.172    24.301     8.083
    14   7 N        2.666    -0.254    26.601     7.660
    15   7 N        1.861    -0.334    29.509     8.052
    16   6 C        2.939     0.144    24.865     8.178
    17   7 N        1.826    -0.343    29.744     8.081
    18   6 C        3.177     0.129    24.795     8.131
    19   1 H        0.925     0.069     2.093     2.262
    20   1 H        0.925     0.055     2.263     2.353
    21   1 H        0.924     0.083     1.944     2.180
    22   1 H        0.924     0.069     2.093     2.262
    23   1 H        0.924     0.067     2.121     2.278
    24   1 H        0.925     0.072     2.066     2.248
    25   1 H        0.925     0.071     2.072     2.251
    26   1 H        0.926     0.084     1.939     2.178
    27   1 H        0.860     0.238     0.932     1.512
    28   1 H        0.860     0.253     0.873     1.463
    29   1 H        0.926     0.031     2.572     2.508
    30   1 H        0.805     0.379     0.525     1.139
    31  15 P        3.709     0.752   130.922    20.554
    32   8 O        1.614    -0.404    20.948     6.177
    33   8 O        0.808    -0.602    26.195     6.861
    34   8 O        1.656    -0.345    19.823     6.010
    35   6 C        3.873     0.054    19.631     6.300
    36   6 C        3.801     0.092    19.064     6.217
    37   8 O        1.703    -0.320    19.340     5.937
    38   6 C        3.974     0.108    18.748     6.152
    39   8 O        1.657    -0.346    19.833     6.012
    40   6 C        3.821    -0.089    22.181     6.702
    41   6 C        3.746     0.173    17.888     6.033
    42   7 N        2.740    -0.056    22.324     7.017
    43   6 C        2.701     0.329    21.402     7.572
    44   8 O        0.858    -0.507    23.931     6.559
    45   7 N        2.697    -0.173    24.749     7.389
    46   6 C        2.762     0.277    22.316     7.736
    47   8 O        0.859    -0.467    23.074     6.440
    48   6 C        2.952    -0.038    28.953     8.825
    49   6 C        3.756    -0.123    22.903     6.823
    50   6 C        2.854     0.026    27.418     8.582
    51   1 H        0.924     0.096     1.823     2.111
    52   1 H        0.924     0.092     1.859     2.132
    53   1 H        0.924     0.096     1.823     2.111
    54   1 H        0.924     0.068     2.104     2.268
    55   1 H        0.925     0.083     1.944     2.180
    56   1 H        0.925     0.066     2.126     2.280
    57   1 H        0.925     0.067     2.114     2.274
    58   1 H        0.860     0.249     0.887     1.475
    59   1 H        0.924     0.069     2.101     2.267
    60   1 H        0.925     0.067     2.120     2.277
    61   1 H        0.925     0.088     1.898     2.154
    62   1 H        0.926     0.103     1.758     2.073
    63  15 P        3.779     0.777   130.106    20.490
    64   8 O        1.614    -0.415    21.163     6.209
    65   8 O        0.808    -0.613    26.466     6.896
    66   8 O        1.656    -0.350    19.908     6.023
    67   6 C        3.895     0.053    19.636     6.299
    68   6 C        3.803     0.094    19.035     6.211
    69   8 O        1.703    -0.313    19.216     5.919
    70   6 C        3.912     0.110    18.725     6.150
    71   8 O        1.656    -0.339    19.699     5.992
    72   6 C        3.822    -0.087    22.150     6.698
    73   6 C        3.730     0.167    18.002     6.057
    74   7 N        2.838    -0.059    22.382     7.027
    75   6 C        3.132     0.103    25.525     8.271
    76   7 N        1.877    -0.321    29.183     8.008
    77   6 C        3.193    -0.009    27.723     8.586
    78   6 C        2.771     0.261    22.610     7.788
    79   8 O        0.860    -0.520    24.228     6.599
    80   7 N        2.715    -0.195    25.239     7.461
    81   6 C        2.828     0.236    23.066     7.870
    82   7 N        2.666    -0.266    26.882     7.700
    83   7 N        1.842    -0.358    30.172     8.141
    84   6 C        3.074     0.120    25.298     8.247
    85   1 H        0.924     0.101     1.776     2.084
    86   1 H        0.924     0.089     1.888     2.149
    87   1 H        0.924     0.104     1.747     2.067
    88   1 H        0.924     0.060     2.194     2.316
    89   1 H        0.925     0.054     2.273     2.358
    90   1 H        0.925     0.089     1.885     2.147
    91   1 H        0.925     0.090     1.874     2.141
    92   1 H        0.926     0.057     2.230     2.335
    93   1 H        0.860     0.234     0.948     1.525
    94   1 H        0.860     0.247     0.897     1.483
    95   1 H        0.860     0.277     0.786     1.388
    96  15 P        3.708     0.767   130.436    20.516
    97   8 O        1.614    -0.406    20.989     6.183
    98   8 O        0.808    -0.621    26.674     6.923
    99   8 O        1.657    -0.346    19.833     6.012
   100   6 C        3.879     0.053    19.635     6.300
   101   6 C        3.818     0.092    19.044     6.211
   102   8 O        1.701    -0.325    19.441     5.953
   103   6 C        3.913     0.111    18.707     6.147
   104   8 O        1.659    -0.343    19.779     6.004
   105   6 C        3.848    -0.099    22.344     6.724
   106   6 C        3.709     0.162    18.122     6.084
   107   7 N        2.827    -0.062    22.435     7.035
   108   6 C        3.163     0.098    25.520     8.257
   109   7 N        1.873    -0.317    29.075     7.993
   110   6 C        3.207    -0.015    27.770     8.582
   111   6 C        2.772     0.259    22.644     7.794
   112   8 O        0.860    -0.520    24.239     6.601
   113   7 N        2.716    -0.186    25.024     7.430
   114   6 C        2.843     0.239    23.022     7.863
   115   7 N        2.671    -0.260    26.737     7.680
   116   7 N        1.850    -0.355    30.089     8.130
   117   6 C        3.112     0.117    25.289     8.238
   118   1 H        0.924     0.093     1.855     2.130
   119   1 H        0.924     0.094     1.837     2.120
   120   1 H        0.924     0.096     1.818     2.108
   121   1 H        0.924     0.060     2.196     2.317
   122   1 H        0.926     0.063     2.168     2.302
   123   1 H        0.925     0.103     1.762     2.076
   124   1 H        0.924     0.105     1.743     2.065
   125   1 H        0.926     0.056     2.250     2.346
   126   1 H        0.860     0.235     0.942     1.520
   127   1 H        0.860     0.238     0.932     1.512
   128   1 H        0.860     0.267     0.820     1.418
   129  15 P        3.769     0.790   129.647    20.454
   130   8 O        1.614    -0.418    21.215     6.217
   131   8 O        0.808    -0.615    26.526     6.904
   132   8 O        1.657    -0.339    19.705     5.992
   133   6 C        3.938     0.048    19.700     6.307
   134   6 C        3.817     0.093    19.035     6.209
   135   8 O        1.702    -0.309    19.156     5.909
   136   6 C        3.882     0.102    18.865     6.175
   137   8 O        1.656    -0.340    19.728     5.996
   138   6 C        3.841    -0.096    22.291     6.716
   139   6 C        3.723     0.163    18.077     6.072
   140   7 N        2.736    -0.062    22.444     7.036
   141   6 C        2.699     0.320    21.557     7.599
   142   8 O        0.858    -0.491    23.582     6.511
   143   7 N        2.695    -0.182    24.945     7.418
   144   6 C        2.762     0.277    22.306     7.734
   145   8 O        0.859    -0.482    23.389     6.484
   146   6 C        2.946    -0.030    28.751     8.794
   147   6 C        3.752    -0.122    22.893     6.823
   148   6 C        2.842     0.018    27.607     8.611
   149   1 H        0.924     0.096     1.820     2.110
   150   1 H        0.924     0.095     1.832     2.117
   151   1 H        0.924     0.103     1.755     2.072
   152   1 H        0.925     0.074     2.044     2.236
   153   1 H        0.925     0.072     2.066     2.248
   154   1 H        0.925     0.088     1.896     2.153
   155   1 H        0.925     0.095     1.830     2.115
   156   1 H        0.860     0.234     0.947     1.524
   157   1 H        0.924     0.061     2.186     2.312
   158   1 H        0.924     0.077     2.008     2.216
   159   1 H        0.924     0.085     1.925     2.170
   160   1 H        0.926     0.123     1.593     1.974
   161  15 P        3.845     0.630   135.170    20.885
   162   7 N        2.717    -0.198    25.305     7.471
   163   6 C        2.842     0.240    22.989     7.858
   164   7 N        2.667    -0.263    26.809     7.690
   165   7 N        1.844    -0.364    30.336     8.163
   166   6 C        3.092     0.117    25.329     8.249
   167   6 C        3.205    -0.018    27.849     8.596
   168   6 C        2.774     0.264    22.543     7.776
   169   8 O        0.860    -0.505    23.892     6.554
   170   7 N        1.873    -0.301    28.643     7.933
   171   6 C        3.130     0.088    25.857     8.325
   172   7 N        2.850    -0.050    22.197     6.997
   173   5 B        3.721     0.142    20.165     7.258
   174   6 C        3.754     0.163    18.026     6.054
   175   6 C        3.833    -0.096    22.302     6.719
   176   6 C        3.932     0.109    18.729     6.150
   177   8 O        1.657    -0.341    19.748     5.999
   178   6 C        3.837     0.098    18.936     6.191
   179   8 O        1.703    -0.322    19.387     5.945
   180   6 C        3.910     0.055    19.595     6.292
   181   8 O        1.657    -0.318    19.324     5.934
   182   8 O        1.613    -0.400    20.870     6.166
   183   1 H        0.861     0.233     0.954     1.530
   184   1 H        0.926     0.078     1.995     2.209
   185   1 H        0.924    -0.191    10.158     4.984
   186   1 H        0.924    -0.197    10.583     5.087
   187   1 H        0.924    -0.203    11.015     5.190
   188   1 H        0.925     0.086     1.917     2.165
   189   1 H        0.925     0.066     2.127     2.280
   190   1 H        0.925     0.097     1.812     2.105
   191   1 H        0.860     0.234     0.946     1.524
   192   1 H        0.860     0.250     0.882     1.471
   193   1 H        0.924     0.068     2.105     2.269
   194   1 H        0.924     0.081     1.970     2.195
   195   1 H        0.924     0.083     1.949     2.183
   196   1 H        0.925     0.088     1.900     2.155
   197  15 P        3.736     0.774   130.181    20.496
   198   8 O        1.614    -0.414    21.146     6.207
   199   8 O        0.808    -0.608    26.353     6.881
   200   8 O        1.656    -0.341    19.738     5.997
   201   6 C        3.891     0.053    19.637     6.300
   202   6 C        3.794     0.094    19.040     6.214
   203   8 O        1.702    -0.321    19.366     5.942
   204   6 C        3.929     0.109    18.740     6.152
   205   8 O        1.658    -0.343    19.781     6.004
   206   6 C        3.825    -0.096    22.307     6.721
   207   6 C        3.732     0.170    17.964     6.050
   208   7 N        2.746    -0.083    22.855     7.100
   209   6 C        2.757     0.323    21.514     7.595
   210   8 O        0.862    -0.539    24.675     6.660
   211   7 N        1.872    -0.380    30.780     8.224
   212   6 C        2.884     0.195    23.843     8.005
   213   7 N        2.679    -0.233    26.096     7.587
   214   6 C        2.913    -0.100    30.526     9.060
   215   6 C        2.867     0.038    27.153     8.542
   216   1 H        0.924     0.090     1.875     2.141
   217   1 H        0.924     0.094     1.845     2.124
   218   1 H        0.924     0.094     1.843     2.123
   219   1 H        0.924     0.069     2.099     2.266
   220   1 H        0.925     0.070     2.087     2.259
   221   1 H        0.925     0.093     1.853     2.129
   222   1 H        0.924     0.082     1.956     2.187
   223   1 H        0.860     0.234     0.948     1.526
   224   1 H        0.860     0.248     0.892     1.480
   225   1 H        0.926     0.086     1.914     2.163
   226   1 H        0.926     0.099     1.794     2.095
   227  15 P        3.715     0.780   129.995    20.481
   228   8 O        1.614    -0.407    21.000     6.185
   229   8 O        0.808    -0.595    26.026     6.838
   230   8 O        1.656    -0.345    19.821     6.010
   231   6 C        3.869     0.048    19.728     6.316
   232   6 C        3.813     0.097    18.971     6.199
   233   8 O        1.702    -0.316    19.270     5.927
   234   6 C        3.910     0.103    18.833     6.168
   235   8 O        1.656    -0.351    19.921     6.025
   236   6 C        3.839    -0.098    22.332     6.723
   237   6 C        3.738     0.168    17.978     6.050
   238   7 N        2.742    -0.065    22.492     7.044
   239   6 C        2.701     0.320    21.559     7.600
   240   8 O        0.859    -0.495    23.681     6.524
   241   7 N        2.696    -0.187    25.055     7.434
   242   6 C        2.761     0.272    22.402     7.751
   243   8 O        0.859    -0.468    23.093     6.443
   244   6 C        2.950    -0.038    28.952     8.825
   245   6 C        3.754    -0.128    23.008     6.840
   246   6 C        2.848     0.018    27.594     8.609
   247   1 H        0.924     0.088     1.902     2.157
   248   1 H        0.924     0.097     1.810     2.104
   249   1 H        0.925     0.090     1.877     2.142
   250   1 H        0.924     0.075     2.028     2.227
   251   1 H        0.925     0.085     1.923     2.169
   252   1 H        0.926     0.096     1.824     2.112
   253   1 H        0.925     0.078     2.004     2.214
   254   1 H        0.860     0.236     0.941     1.519
   255   1 H        0.924     0.078     1.997     2.210
   256   1 H        0.925     0.089     1.887     2.148
   257   1 H        0.925     0.066     2.136     2.285
   258   1 H        0.926     0.127     1.558     1.952
   259  15 P        3.670     0.759   130.703    20.537
   260   8 O        0.808    -0.585    25.793     6.808
   261   8 O        1.614    -0.390    20.683     6.138
   262   8 O        1.654    -0.343    19.771     6.002
   263   6 C        3.839     0.063    19.491     6.281
   264   6 C        3.760     0.097    19.020     6.217
   265   8 O        1.698    -0.338    19.672     5.988
   266   6 C        3.730     0.105    18.941     6.213
   267   8 O        1.655    -0.510    23.112     6.490
   268   6 C        3.807    -0.098    22.365     6.732
   269   6 C        3.703     0.172    17.983     6.063
   270   7 N        2.739    -0.082    22.837     7.098
   271   6 C        2.749     0.330    21.395     7.574
   272   8 O        0.861    -0.549    24.906     6.691
   273   7 N        1.861    -0.373    30.587     8.197
   274   6 C        2.880     0.191    23.927     8.019
   275   7 N        2.672    -0.239    26.238     7.608
   276   6 C        2.913    -0.108    30.742     9.092
   277   6 C        2.870     0.038    27.152     8.542
   278   1 H        0.924     0.069     2.093     2.262
   279   1 H        0.924     0.089     1.889     2.149
   280   1 H        0.924     0.077     2.011     2.217
   281   1 H        0.924     0.055     2.261     2.351
   282   1 H        0.805     0.379     0.524     1.137
   283   1 H        0.924     0.070     2.083     2.257
   284   1 H        0.924     0.081     1.971     2.196
   285   1 H        0.924     0.065     2.137     2.286
   286   1 H        0.860     0.242     0.913     1.497
   287   1 H        0.860     0.242     0.916     1.499
   288   1 H        0.926     0.099     1.798     2.097
   289   1 H        0.926     0.098     1.804     2.100
   290   8 O        1.654    -0.494    22.758     6.440
   291   6 C        3.673     0.053    19.916     6.396
   292   6 C        3.783     0.089    19.119     6.228
   293   8 O        1.699    -0.328    19.492     5.961
   294   6 C        3.941     0.098    18.912     6.180
   295   8 O        1.656    -0.335    19.630     5.981
   296   6 C        3.757     0.101    18.960     6.208
   297   8 O        1.658    -0.471    22.279     6.372
   298   6 C        3.717     0.164    18.074     6.073
   299   7 N        2.847    -0.063    22.459     7.039
   300   6 C        3.154     0.097    25.567     8.269
   301   7 N        1.876    -0.296    28.520     7.916
   302   6 C        3.211    -0.015    27.717     8.569
   303   6 C        2.773     0.264    22.554     7.778
   304   8 O        0.860    -0.503    23.851     6.548
   305   7 N        2.719    -0.192    25.159     7.450
   306   6 C        2.836     0.239    23.009     7.861
   307   7 N        2.667    -0.266    26.883     7.701
   308   7 N        1.841    -0.374    30.620     8.201
   309   6 C        3.095     0.122    25.210     8.229
   310   1 H        0.925     0.079     1.990     2.206
   311   1 H        0.924     0.082     1.963     2.191
   312   1 H        0.924     0.073     2.048     2.238
   313   1 H        0.925     0.065     2.145     2.290
   314   1 H        0.926     0.033     2.539     2.492
   315   1 H        0.805     0.335     0.625     1.242
   316   1 H        0.924     0.098     1.800     2.098
   317   1 H        0.926     0.070     2.084     2.258
   318   1 H        0.860     0.245     0.901     1.487
   319   1 H        0.860     0.247     0.893     1.480
   320   1 H        0.860     0.252     0.877     1.467
   321   1 H        0.805     0.355     0.576     1.192
   322  15 P        3.698     0.805   129.158    20.415
   323   8 O        0.808    -0.612    26.455     6.895
   324   8 O        1.614    -0.417    21.206     6.215
   325   8 O        1.655    -0.378    20.429     6.101
   326   6 C        3.837     0.059    19.565     6.293
   327   6 C        3.797     0.091    19.083     6.220
   328   8 O        1.701    -0.308    19.139     5.907
   329   6 C        3.975     0.107    18.754     6.153
   330   8 O        1.656    -0.336    19.651     5.984
   331   6 C        3.769     0.095    19.042     6.219
   332   8 O        1.654    -0.464    22.137     6.351
   333   6 C        3.724     0.161    18.100     6.075
   334   7 N        2.825    -0.084    22.880     7.104
   335   6 C        3.206     0.112    24.972     8.138
   336   7 N        1.869    -0.313    28.953     7.976
   337   6 C        3.233     0.017    26.789     8.401
   338   6 C        2.899     0.170    24.344     8.090
   339   7 N        2.664    -0.247    26.441     7.637
   340   7 N        1.859    -0.332    29.479     8.048
   341   6 C        2.920     0.146    24.819     8.170
   342   7 N        1.826    -0.333    29.485     8.046
   343   6 C        3.153     0.133    24.841     8.151
   344   1 H        0.925     0.095     1.835     2.118
   345   1 H        0.924     0.095     1.836     2.119
   346   1 H        0.924     0.108     1.718     2.049
   347   1 H        0.924     0.047     2.363     2.404
   348   1 H        0.926     0.053     2.286     2.364
   349   1 H        0.805     0.359     0.568     1.183
   350   1 H        0.924     0.111     1.690     2.033
   351   1 H        0.926     0.063     2.163     2.300
   352   1 H        0.860     0.244     0.909     1.493
   353   1 H        0.860     0.223     0.995     1.562
   354   1 H        0.926     0.052     2.297     2.370
   355  15 P        3.732     0.804   129.180    20.417
   356   8 O        1.614    -0.405    20.963     6.180
   357   8 O        0.808    -0.632    26.959     6.960
   358   8 O        1.656    -0.364    20.165     6.062
   359   6 C        3.859     0.057    19.593     6.295
   360   6 C        3.807     0.094    19.030     6.210
   361   8 O        1.701    -0.315    19.265     5.926
   362   6 C        3.992     0.115    18.628     6.132
   363   8 O        1.657    -0.327    19.492     5.960
   364   6 C        3.756     0.092    19.104     6.232
   365   8 O        1.654    -0.471    22.280     6.372
   366   6 C        3.761     0.159    18.086     6.063
   367   7 N        2.839    -0.080    22.797     7.091
   368   6 C        3.194     0.103    25.245     8.192
   369   7 N        1.876    -0.319    29.132     8.001
   370   6 C        3.237    -0.013    27.428     8.496
   371   6 C        2.770     0.260    22.625     7.790
   372   8 O        0.859    -0.506    23.911     6.556
   373   7 N        2.722    -0.190    25.116     7.443
   374   6 C        2.838     0.241    22.985     7.857
   375   7 N        2.668    -0.251    26.536     7.651
   376   7 N        1.841    -0.364    30.337     8.163
   377   6 C        3.111     0.119    25.252     8.232
   378   1 H        0.925     0.092     1.863     2.135
   379   1 H        0.924     0.097     1.809     2.103
   380   1 H        0.924     0.106     1.729     2.056
   381   1 H        0.924     0.044     2.402     2.424
   382   1 H        0.925     0.051     2.309     2.376
   383   1 H        0.805     0.380     0.523     1.136
   384   1 H        0.925     0.100     1.783     2.088
   385   1 H        0.926     0.043     2.411     2.428
   386   1 H        0.860     0.247     0.896     1.483
   387   1 H        0.860     0.251     0.880     1.469
   388   1 H        0.860     0.248     0.891     1.479
   389  15 P        3.776     0.802   129.253    20.422
   390   8 O        1.614    -0.405    20.971     6.181
   391   8 O        0.808    -0.632    26.958     6.960
   392   8 O        1.657    -0.358    20.054     6.045
   393   6 C        3.897     0.051    19.664     6.304
   394   6 C        3.802     0.088    19.126     6.226
   395   8 O        1.698    -0.317    19.287     5.929
   396   6 C        3.985     0.107    18.762     6.154
   397   8 O        1.658    -0.330    19.540     5.967
   398   6 C        3.775     0.102    18.929     6.199
   399   8 O        1.656    -0.467    22.200     6.361
   400   6 C        3.732     0.165    18.037     6.062
   401   7 N        2.749    -0.104    23.284     7.167
   402   6 C        2.754     0.324    21.490     7.591
   403   8 O        0.861    -0.517    24.164     6.591
   404   7 N        1.856    -0.371    30.528     8.189
   405   6 C        2.882     0.197    23.813     8.000
   406   7 N        2.666    -0.233    26.095     7.587
   407   6 C        2.923    -0.098    30.465     9.052
   408   6 C        2.876     0.036    27.187     8.548
   409   1 H        0.925     0.102     1.764     2.077
   410   1 H        0.924     0.098     1.803     2.100
   411   1 H        0.924     0.113     1.675     2.024
   412   1 H        0.924     0.048     2.341     2.393
   413   1 H        0.926     0.042     2.421     2.433
   414   1 H        0.805     0.352     0.584     1.200
   415   1 H        0.924     0.111     1.688     2.032
   416   1 H        0.860     0.239     0.927     1.508
   417   1 H        0.860     0.246     0.900     1.486
   418   1 H        0.926     0.072     2.060     2.244
   419   1 H        0.927     0.084     1.933     2.174
   420  15 P        3.786     0.823   128.561    20.368
   421   8 O        1.614    -0.414    21.145     6.206
   422   8 O        0.808    -0.635    27.033     6.970
   423   8 O        1.657    -0.363    20.150     6.060
   424   6 C        3.899     0.055    19.597     6.293
   425   6 C        3.810     0.093    19.038     6.211
   426   8 O        1.699    -0.312    19.199     5.916
   427   6 C        4.009     0.115    18.636     6.133
   428   8 O        1.658    -0.315    19.270     5.926
   429   6 C        3.761     0.092    19.104     6.231
   430   8 O        1.654    -0.474    22.350     6.382
   431   6 C        3.734     0.154    18.190     6.087
   432   7 N        2.825    -0.088    22.948     7.115
   433   6 C        3.182     0.109    25.183     8.191
   434   7 N        1.870    -0.307    28.809     7.956
   435   6 C        3.226     0.010    27.017     8.445
   436   6 C        2.908     0.174    24.263     8.077
   437   7 N        2.665    -0.234    26.127     7.592
   438   7 N        1.858    -0.333    29.498     8.050
   439   6 C        2.921     0.141    24.935     8.189
   440   7 N        1.826    -0.337    29.582     8.059
   441   6 C        3.140     0.127    24.996     8.182
   442   1 H        0.925     0.094     1.836     2.119
   443   1 H        0.924     0.091     1.866     2.136
   444   1 H        0.924     0.109     1.702     2.040
   445   1 H        0.924     0.052     2.298     2.371
   446   1 H        0.925     0.054     2.267     2.354
   447   1 H        0.805     0.382     0.519     1.131
   448   1 H        0.925     0.100     1.783     2.088
   449   1 H        0.926     0.045     2.389     2.417
   450   1 H        0.860     0.235     0.942     1.521
   451   1 H        0.860     0.232     0.956     1.532
   452   1 H        0.926     0.049     2.330     2.387
   453  15 P        3.819     0.805   129.148    20.414
   454   8 O        1.614    -0.412    21.106     6.201
   455   8 O        0.808    -0.633    26.984     6.963
   456   8 O        1.658    -0.356    20.016     6.040
   457   6 C        3.918     0.056    19.580     6.289
   458   6 C        3.814     0.093    19.034     6.210
   459   8 O        1.700    -0.314    19.236     5.922
   460   6 C        3.966     0.104    18.800     6.161
   461   8 O        1.657    -0.326    19.472     5.957
   462   6 C        3.767     0.101    18.957     6.205
   463   8 O        1.655    -0.462    22.095     6.345
   464   6 C        3.734     0.165    18.026     6.060
   465   7 N        2.739    -0.105    23.303     7.170
   466   6 C        2.753     0.326    21.467     7.587
   467   8 O        0.861    -0.534    24.546     6.643
   468   7 N        1.862    -0.366    30.383     8.170
   469   6 C        2.880     0.192    23.902     8.015
   470   7 N        2.671    -0.238    26.228     7.606
   471   6 C        2.914    -0.100    30.531     9.061
   472   6 C        2.865     0.040    27.104     8.534
   473   1 H        0.924     0.097     1.813     2.105
   474   1 H        0.925     0.091     1.870     2.138
   475   1 H        0.924     0.103     1.760     2.074
   476   1 H        0.924     0.054     2.272     2.357
   477   1 H        0.925     0.046     2.372     2.409
   478   1 H        0.805     0.356     0.574     1.190
   479   1 H        0.924     0.104     1.752     2.070
   480   1 H        0.860     0.252     0.876     1.467
   481   1 H        0.860     0.247     0.893     1.481
   482   1 H        0.926     0.079     1.991     2.206
   483   1 H        0.926     0.083     1.946     2.182
   484  15 P        3.812     0.822   128.589    20.370
   485   8 O        1.614    -0.411    21.089     6.198
   486   8 O        0.808    -0.623    26.724     6.930
   487   8 O        1.657    -0.372    20.318     6.085
   488   6 C        3.940     0.059    19.532     6.280
   489   6 C        3.799     0.091    19.071     6.218
   490   8 O        1.698    -0.319    19.338     5.937
   491   6 C        4.008     0.117    18.598     6.126
   492   8 O        1.657    -0.320    19.362     5.940
   493   6 C        3.759     0.097    19.023     6.218
   494   8 O        1.654    -0.474    22.341     6.381
   495   6 C        3.740     0.153    18.201     6.087
   496   7 N        2.736    -0.105    23.310     7.171
   497   6 C        2.752     0.326    21.460     7.586
   498   8 O        0.862    -0.530    24.450     6.630
   499   7 N        1.867    -0.369    30.464     8.181
   500   6 C        2.881     0.198    23.800     7.998
   501   7 N        2.675    -0.227    25.971     7.569
   502   6 C        2.910    -0.094    30.363     9.036
   503   6 C        2.860     0.044    27.000     8.517
   504   1 H        0.924     0.087     1.910     2.161
   505   1 H        0.924     0.092     1.855     2.130
   506   1 H        0.924     0.108     1.710     2.045
   507   1 H        0.924     0.050     2.323     2.383
   508   1 H        0.925     0.050     2.319     2.382
   509   1 H        0.805     0.384     0.515     1.127
   510   1 H        0.924     0.107     1.724     2.053
   511   1 H        0.860     0.242     0.913     1.497
   512   1 H        0.860     0.237     0.937     1.517
   513   1 H        0.926     0.076     2.020     2.223
   514   1 H        0.926     0.077     2.007     2.216
   515  15 P        3.813     0.821   128.632    20.373
   516   8 O        1.614    -0.408    21.020     6.188
   517   8 O        0.808    -0.631    26.924     6.955
   518   8 O        1.658    -0.374    20.354     6.090
   519   6 C        3.921     0.055    19.599     6.292
   520   6 C        3.816     0.093    19.031     6.209
   521   8 O        1.700    -0.316    19.283     5.929
   522   6 C        4.015     0.115    18.636     6.133
   523   8 O        1.658    -0.323    19.412     5.948
   524   6 C        3.758     0.096    19.050     6.223
   525   8 O        1.655    -0.470    22.249     6.367
   526   6 C        3.755     0.153    18.169     6.078
   527   7 N        2.851    -0.075    22.698     7.076
   528   6 C        3.189     0.101    25.308     8.206
   529   7 N        1.876    -0.312    28.947     7.975
   530   6 C        3.240     0.008    26.923     8.412
   531   6 C        2.904     0.172    24.305     8.084
   532   7 N        2.660    -0.242    26.312     7.618
   533   7 N        1.855    -0.328    29.368     8.032
   534   6 C        2.944     0.144    24.866     8.179
   535   7 N        1.827    -0.338    29.614     8.064
   536   6 C        3.187     0.130    24.724     8.113
   537   1 H        0.925     0.099     1.791     2.093
   538   1 H        0.924     0.088     1.903     2.157
   539   1 H        0.924     0.106     1.731     2.058
   540   1 H        0.924     0.050     2.315     2.379
   541   1 H        0.925     0.045     2.380     2.413
   542   1 H        0.805     0.377     0.530     1.143
   543   1 H        0.925     0.104     1.748     2.067
   544   1 H        0.926     0.055     2.258     2.350
   545   1 H        0.860     0.250     0.884     1.473
   546   1 H        0.860     0.236     0.940     1.519
   547   1 H        0.926     0.041     2.438     2.442
   548  15 P        3.797     0.802   129.233    20.421
   549   8 O        1.614    -0.401    20.892     6.169
   550   8 O        0.808    -0.622    26.686     6.925
   551   8 O        1.656    -0.364    20.163     6.062
   552   6 C        3.897     0.053    19.636     6.299
   553   6 C        3.765     0.088    19.159     6.239
   554   8 O        1.698    -0.330    19.532     5.967
   555   6 C        3.776     0.095    19.045     6.218
   556   8 O        1.655    -0.486    22.597     6.417
   557   6 C        3.741     0.094    19.105     6.236
   558   8 O        1.654    -0.482    22.500     6.403
   559   6 C        3.738     0.149    18.263     6.098
   560   7 N        2.741    -0.074    22.681     7.073
   561   6 C        2.705     0.326    21.466     7.583
   562   8 O        0.859    -0.489    23.549     6.506
   563   7 N        2.699    -0.172    24.716     7.384
   564   6 C        2.761     0.282    22.223     7.720
   565   8 O        0.859    -0.473    23.204     6.458
   566   6 C        2.906    -0.100    30.524     9.059
   567   6 C        2.847     0.035    27.205     8.548
   568   1 H        0.925     0.099     1.797     2.097
   569   1 H        0.924     0.094     1.841     2.122
   570   1 H        0.924     0.091     1.867     2.137
   571   1 H        0.925     0.064     2.150     2.293
   572   1 H        0.805     0.372     0.538     1.152
   573   1 H        0.924     0.062     2.175     2.306
   574   1 H        0.805     0.367     0.549     1.164
   575   1 H        0.925     0.102     1.767     2.079
   576   1 H        0.860     0.257     0.855     1.449
   577   1 H        0.927     0.095     1.830     2.116
   578   1 H        0.927     0.102     1.762     2.076
   579   1 H        0.895     0.473     0.366     0.946
   580   1 H        0.900     0.469     0.370     0.952
   581   1 H        0.898     0.478     0.359     0.937
   582   1 H        0.897     0.486     0.349     0.924
   583   1 H        0.901     0.490     0.343     0.917
   584   1 H        0.901     0.494     0.340     0.912
   585   1 H        0.896     0.492     0.341     0.914
   586   1 H        0.899     0.490     0.344     0.918
   587   1 H        0.895     0.462     0.380     0.965
   588   1 H        0.897     0.478     0.359     0.938
   589   1 H        0.893     0.486     0.349     0.925
   590   1 H        0.897     0.487     0.347     0.922
   591   1 H        0.895     0.495     0.339     0.911
   592   1 H        0.897     0.490     0.344     0.918
   593   1 H        0.897     0.482     0.354     0.931
   594   1 H        0.887     0.453     0.393     0.981

 Mol. C6AA /au·bohr⁶  :    4604306.667156
 Mol. C8AA /au·bohr⁸  :  114157196.581514
 Mol. α(0) /au        :       3243.115743


Wiberg/Mayer (AO) data.
largest (>0.10) Wiberg bond orders for each atom

 ---------------------------------------------------------------------------
     #   Z sym  total        # sym  WBO       # sym  WBO       # sym  WBO
 ---------------------------------------------------------------------------
     1   8 O    1.894 --     2 C    0.996    30 H    0.845
     2   6 C    3.956 --     1 O    0.996     3 C    0.985    19 H    0.970
                            20 H    0.968
     3   6 C    3.942 --     2 C    0.985     5 C    0.971     4 O    0.962
                            21 H    0.953
     4   8 O    2.077 --     8 C    0.984     3 C    0.962
     5   6 C    3.922 --     7 C    0.992     3 C    0.971    22 H    0.962
                             6 O    0.929
     6   8 O    2.266 --    31 P    1.124     5 C    0.929
     7   6 C    3.989 --     5 C    0.992     8 C    0.975    23 H    0.970
                            24 H    0.970
     8   6 C    3.940 --     4 O    0.984     7 C    0.975     9 N    0.957
                            25 H    0.955
     9   7 N    3.601 --    10 C    1.229    18 C    1.151     8 C    0.957
                            11 N    0.107
    10   6 C    3.952 --    11 N    1.599     9 N    1.229    26 H    0.953
    11   7 N    2.995 --    10 C    1.599    12 C    1.176     9 N    0.107
    12   6 C    3.968 --    18 C    1.334    13 C    1.186    11 N    1.176
[...]
   330   8 O    2.260 --   355 P    1.103   329 C    0.943
   331   6 C    3.968 --   332 O    1.004   333 C    0.975   329 C    0.960
                           348 H    0.948
   332   8 O    1.933 --   331 C    1.004   349 H    0.842
   333   6 C    3.933 --   328 O    0.981   331 C    0.975   334 N    0.946
                           350 H    0.943
   334   7 N    3.584 --   335 C    1.227   343 C    1.139   333 C    0.946
                           336 N    0.113
   335   6 C    3.956 --   336 N    1.595   334 N    1.227   351 H    0.947
   336   7 N    2.995 --   335 C    1.595   337 C    1.178   334 N    0.113
   337   6 C    3.971 --   343 C    1.342   338 C    1.186   336 N    1.178
   338   6 C    3.973 --   339 N    1.341   340 N    1.307   337 C    1.186
   339   7 N    3.437 --   338 C    1.341   353 H    0.931   352 H    0.887
   340   7 N    3.056 --   341 C    1.398   338 C    1.307
   341   6 C    3.967 --   342 N    1.466   340 N    1.398   354 H    0.957
   342   7 N    3.002 --   341 C    1.466   343 C    1.257
   343   6 C    3.955 --   337 C    1.342   342 N    1.257   334 N    1.139
   344   1 H    0.991 --   326 C    0.961
   345   1 H    0.991 --   326 C    0.964
   346   1 H    0.988 --   327 C    0.945
   347   1 H    0.998 --   329 C    0.961
   348   1 H    0.997 --   331 C    0.948
   349   1 H    0.871 --   332 O    0.842
   350   1 H    0.988 --   333 C    0.943
   351   1 H    0.995 --   335 C    0.947
   352   1 H    0.940 --   339 N    0.887
   353   1 H    0.950 --   339 N    0.931
   354   1 H    0.997 --   341 C    0.957
   355  15 P    5.394 --   357 O    1.723   356 O    1.380   358 O    1.121
                           330 O    1.103
   356   8 O    2.265 --   355 P    1.380   585 H    0.724
   357   8 O    1.926 --   355 P    1.723
   358   8 O    2.244 --   355 P    1.121   359 C    0.927
   359   6 C    3.913 --   360 C    0.987   379 H    0.964   378 H    0.955
                           358 O    0.927
   360   6 C    3.941 --   359 C    0.987   362 C    0.970   361 O    0.964
                           380 H    0.947
   361   8 O    2.086 --   366 C    0.982   360 C    0.964
   362   6 C    3.936 --   360 C    0.970   364 C    0.969   381 H    0.958
                           363 O    0.951
   363   8 O    2.268 --   389 P    1.110   362 C    0.951
   364   6 C    3.970 --   365 O    1.006   362 C    0.969   366 C    0.958
                           382 H    0.951
   365   8 O    1.928 --   364 C    1.006   383 H    0.843
   366   6 C    3.930 --   361 O    0.982   364 C    0.958   367 N    0.949
                           384 H    0.945
   367   7 N    3.590 --   368 C    1.221   377 C    1.150   366 C    0.949
                           369 N    0.111
   368   6 C    3.952 --   369 N    1.594   367 N    1.221   385 H    0.954
   369   7 N    2.997 --   368 C    1.594   370 C    1.190   367 N    0.111
   370   6 C    3.961 --   377 C    1.353   369 N    1.190   371 C    1.130
   371   6 C    3.953 --   372 O    1.570   373 N    1.139   370 C    1.130
   372   8 O    1.942 --   371 C    1.570   373 N    0.135
   373   7 N    3.519 --   374 C    1.175   371 C    1.139   386 H    0.855
                           372 O    0.135
   374   6 C    3.967 --   376 N    1.352   375 N    1.348   373 N    1.175
   375   7 N    3.411 --   374 C    1.348   388 H    0.918   387 H    0.881
                           376 N    0.108
   376   7 N    2.947 --   374 C    1.352   377 C    1.232   375 N    0.108
   377   6 C    3.952 --   370 C    1.353   376 N    1.232   367 N    1.150
   378   1 H    0.991 --   359 C    0.955
   379   1 H    0.990 --   359 C    0.964
   380   1 H    0.987 --   360 C    0.947
   381   1 H    0.998 --   362 C    0.958
   382   1 H    0.997 --   364 C    0.951
   383   1 H    0.856 --   365 O    0.843
   384   1 H    0.990 --   366 C    0.945
   385   1 H    0.997 --   368 C    0.954
   386   1 H    0.939 --   373 N    0.855
   387   1 H    0.936 --   375 N    0.881
   388   1 H    0.937 --   375 N    0.918
   389  15 P    5.396 --   391 O    1.715   390 O    1.383   392 O    1.124
                           363 O    1.110
   390   8 O    2.266 --   389 P    1.383   584 H    0.723
   391   8 O    1.919 --   389 P    1.715
   392   8 O    2.251 --   389 P    1.124   393 C    0.926
   393   6 C    3.909 --   394 C    0.990   410 H    0.963   409 H    0.960
                           392 O    0.926
   394   6 C    3.940 --   393 C    0.990   396 C    0.971   395 O    0.958
                           411 H    0.947
   395   8 O    2.083 --   400 C    0.986   394 C    0.958
   396   6 C    3.930 --   394 C    0.971   398 C    0.965   412 H    0.959
                           397 O    0.946
   397   8 O    2.272 --   420 P    1.109   396 C    0.946
   398   6 C    3.969 --   399 O    1.002   400 C    0.975   396 C    0.965
                           413 H    0.944
   399   8 O    1.929 --   398 C    1.002   414 H    0.830
   400   6 C    3.932 --   395 O    0.986   398 C    0.975   415 H    0.943
                           401 N    0.941
   401   7 N    3.566 --   408 C    1.218   402 C    1.063   400 C    0.941
                           403 O    0.113
   402   6 C    3.953 --   403 O    1.548   404 N    1.245   401 N    1.063
   403   8 O    1.925 --   402 C    1.548   404 N    0.125   401 N    0.113
   404   7 N    3.044 --   405 C    1.339   402 C    1.245   403 O    0.125
                           406 N    0.111
   405   6 C    3.968 --   406 N    1.388   404 N    1.339   407 C    1.152
   406   7 N    3.470 --   405 C    1.388   417 H    0.918   416 H    0.886
                           404 N    0.111
   407   6 C    3.980 --   408 C    1.648   405 C    1.152   418 H    0.962
   408   6 C    3.965 --   407 C    1.648   401 N    1.218   419 H    0.943
   409   1 H    0.989 --   393 C    0.960
   410   1 H    0.990 --   393 C    0.963
   411   1 H    0.986 --   394 C    0.947
   412   1 H    0.998 --   396 C    0.959
   413   1 H    0.998 --   398 C    0.944
   414   1 H    0.876 --   399 O    0.830
   415   1 H    0.987 --   400 C    0.943
   416   1 H    0.942 --   406 N    0.886
   417   1 H    0.939 --   406 N    0.918
   418   1 H    0.994 --   407 C    0.962
   419   1 H    0.992 --   408 C    0.943
   420  15 P    5.384 --   422 O    1.716   421 O    1.370   423 O    1.125
                           397 O    1.109
   421   8 O    2.256 --   420 P    1.370   583 H    0.727
   422   8 O    1.918 --   420 P    1.716
   423   8 O    2.248 --   420 P    1.125   424 C    0.930
   424   6 C    3.914 --   425 C    0.988   443 H    0.963   442 H    0.944
                           423 O    0.930
   425   6 C    3.940 --   424 C    0.988   427 C    0.971   426 O    0.962
                           444 H    0.947
   426   8 O    2.089 --   431 C    0.991   425 C    0.962
   427   6 C    3.933 --   425 C    0.971   429 C    0.969   445 H    0.955
                           428 O    0.951
   428   8 O    2.283 --   453 P    1.127   427 C    0.951
   429   6 C    3.970 --   430 O    1.007   427 C    0.969   431 C    0.958
                           446 H    0.955
   430   8 O    1.922 --   429 C    1.007   447 H    0.841
   431   6 C    3.930 --   426 O    0.991   429 C    0.958   448 H    0.942
                           432 N    0.940
   432   7 N    3.579 --   433 C    1.223   441 C    1.140   431 C    0.940
                           434 N    0.115
   433   6 C    3.961 --   434 N    1.600   432 N    1.223   449 H    0.951
   434   7 N    3.000 --   433 C    1.600   435 C    1.176   432 N    0.115
   435   6 C    3.969 --   441 C    1.350   436 C    1.177   434 N    1.176
   436   6 C    3.971 --   437 N    1.363   438 N    1.296   435 C    1.177
   437   7 N    3.463 --   436 C    1.363   451 H    0.925   450 H    0.891
   438   7 N    3.049 --   439 C    1.417   436 C    1.296
   439   6 C    3.969 --   440 N    1.455   438 N    1.417   452 H    0.957
   440   7 N    2.994 --   439 C    1.455   441 C    1.250
   441   6 C    3.955 --   435 C    1.350   440 N    1.250   432 N    1.140
   442   1 H    0.991 --   424 C    0.944
   443   1 H    0.992 --   424 C    0.963
   444   1 H    0.987 --   425 C    0.947
   445   1 H    0.997 --   427 C    0.955
   446   1 H    0.997 --   429 C    0.955
   447   1 H    0.854 --   430 O    0.841
   448   1 H    0.990 --   431 C    0.942
   449   1 H    0.997 --   433 C    0.951
   450   1 H    0.944 --   437 N    0.891
   451   1 H    0.946 --   437 N    0.925
   452   1 H    0.997 --   439 C    0.957
   453  15 P    5.390 --   455 O    1.711   454 O    1.360   428 O    1.127
                           456 O    1.119
   454   8 O    2.251 --   453 P    1.360   582 H    0.729
   455   8 O    1.918 --   453 P    1.711
   456   8 O    2.252 --   453 P    1.119   457 C    0.933
   457   6 C    3.916 --   458 C    0.990   474 H    0.963   473 H    0.963
                           456 O    0.933
   458   6 C    3.940 --   457 C    0.990   460 C    0.969   459 O    0.961
                           475 H    0.947
   459   8 O    2.088 --   464 C    0.990   458 C    0.961
   460   6 C    3.927 --   458 C    0.969   462 C    0.960   476 H    0.959
                           461 O    0.945
   461   8 O    2.275 --   484 P    1.121   460 C    0.945
   462   6 C    3.968 --   463 O    1.008   464 C    0.970   460 C    0.960
                           477 H    0.954
   463   8 O    1.935 --   462 C    1.008   478 H    0.842
   464   6 C    3.932 --   459 O    0.990   462 C    0.970   479 H    0.945
                           465 N    0.938
   465   7 N    3.566 --   472 C    1.215   466 C    1.070   464 C    0.938
                           467 O    0.110
   466   6 C    3.952 --   467 O    1.533   468 N    1.255   465 N    1.070
   467   8 O    1.916 --   466 C    1.533   468 N    0.124   465 N    0.110
   468   7 N    3.041 --   469 C    1.339   466 C    1.255   467 O    0.124
                           470 N    0.111
   469   6 C    3.970 --   470 N    1.387   468 N    1.339   471 C    1.156
   470   7 N    3.466 --   469 C    1.387   481 H    0.918   480 H    0.883
                           468 N    0.111
   471   6 C    3.977 --   472 C    1.642   469 C    1.156   482 H    0.961
   472   6 C    3.960 --   471 C    1.642   465 N    1.215   483 H    0.952
   473   1 H    0.990 --   457 C    0.963
   474   1 H    0.992 --   457 C    0.963
   475   1 H    0.988 --   458 C    0.947
   476   1 H    0.997 --   460 C    0.959
   477   1 H    0.998 --   462 C    0.954
   478   1 H    0.873 --   463 O    0.842
   479   1 H    0.988 --   464 C    0.945
   480   1 H    0.936 --   470 N    0.883
   481   1 H    0.938 --   470 N    0.918
   482   1 H    0.993 --   471 C    0.961
   483   1 H    0.992 --   472 C    0.952
   484  15 P    5.372 --   486 O    1.725   485 O    1.353   461 O    1.121
                           487 O    1.097
   485   8 O    2.250 --   484 P    1.353   581 H    0.736
   486   8 O    1.932 --   484 P    1.725
   487   8 O    2.228 --   484 P    1.097   488 C    0.934
   488   6 C    3.920 --   489 C    0.992   505 H    0.961   504 H    0.953
                           487 O    0.934
   489   6 C    3.943 --   488 C    0.992   491 C    0.970   490 O    0.962
                           506 H    0.946
   490   8 O    2.079 --   495 C    0.984   489 C    0.962
   491   6 C    3.929 --   493 C    0.972   489 C    0.970   507 H    0.956
                           492 O    0.941
   492   8 O    2.277 --   515 P    1.130   491 C    0.941
   493   6 C    3.969 --   494 O    1.008   491 C    0.972   495 C    0.956
                           508 H    0.954
   494   8 O    1.928 --   493 C    1.008   509 H    0.839
   495   6 C    3.927 --   490 O    0.984   493 C    0.956   510 H    0.945
                           496 N    0.939
   496   7 N    3.560 --   503 C    1.207   497 C    1.071   495 C    0.939
                           498 O    0.112
   497   6 C    3.953 --   498 O    1.534   499 N    1.254   496 N    1.071
   498   8 O    1.910 --   497 C    1.534   499 N    0.122   496 N    0.112
   499   7 N    3.040 --   500 C    1.341   497 C    1.254   498 O    0.122
                           501 N    0.109
   500   6 C    3.968 --   501 N    1.387   499 N    1.341   502 C    1.150
   501   7 N    3.471 --   500 C    1.387   512 H    0.922   511 H    0.885
                           499 N    0.109
   502   6 C    3.978 --   503 C    1.652   500 C    1.150   513 H    0.962
   503   6 C    3.963 --   502 C    1.652   496 N    1.207   514 H    0.954
   504   1 H    0.992 --   488 C    0.953
   505   1 H    0.991 --   488 C    0.961
   506   1 H    0.987 --   489 C    0.946
   507   1 H    0.998 --   491 C    0.956
   508   1 H    0.997 --   493 C    0.954
   509   1 H    0.852 --   494 O    0.839
   510   1 H    0.987 --   495 C    0.945
   511   1 H    0.941 --   501 N    0.885
   512   1 H    0.943 --   501 N    0.922
   513   1 H    0.994 --   502 C    0.962
   514   1 H    0.993 --   503 C    0.954
   515  15 P    5.379 --   517 O    1.716   516 O    1.347   492 O    1.130
                           518 O    1.111
   516   8 O    2.249 --   515 P    1.347   580 H    0.743
   517   8 O    1.927 --   515 P    1.716
   518   8 O    2.238 --   515 P    1.111   519 C    0.928
   519   6 C    3.912 --   520 C    0.990   538 H    0.962   537 H    0.961
                           518 O    0.928
   520   6 C    3.942 --   519 C    0.990   522 C    0.970   521 O    0.963
                           539 H    0.948
   521   8 O    2.082 --   526 C    0.984   520 C    0.963
   522   6 C    3.936 --   524 C    0.971   520 C    0.970   540 H    0.956
                           523 O    0.952
   523   8 O    2.275 --   548 P    1.117   522 C    0.952
   524   6 C    3.970 --   525 O    1.007   522 C    0.971   541 H    0.955
                           526 C    0.954
   525   8 O    1.931 --   524 C    1.007   542 H    0.845
   526   6 C    3.930 --   521 O    0.984   524 C    0.954   527 N    0.952
                           543 H    0.945
   527   7 N    3.598 --   528 C    1.225   536 C    1.153   526 C    0.952
                           529 N    0.112
   528   6 C    3.959 --   529 N    1.593   527 N    1.225   544 H    0.953
   529   7 N    2.995 --   528 C    1.593   530 C    1.180   527 N    0.112
   530   6 C    3.969 --   536 C    1.342   531 C    1.180   529 N    1.180
   531   6 C    3.973 --   532 N    1.362   533 N    1.299   530 C    1.180
   532   7 N    3.452 --   531 C    1.362   546 H    0.925   545 H    0.878
   533   7 N    3.074 --   534 C    1.407   531 C    1.299
   534   6 C    3.970 --   535 N    1.464   533 N    1.407   547 H    0.957
   535   7 N    2.997 --   534 C    1.464   536 C    1.246
   536   6 C    3.956 --   530 C    1.342   535 N    1.246   527 N    1.153
   537   1 H    0.990 --   519 C    0.961
   538   1 H    0.992 --   519 C    0.962
   539   1 H    0.987 --   520 C    0.948
   540   1 H    0.997 --   522 C    0.956
   541   1 H    0.998 --   524 C    0.955
   542   1 H    0.858 --   525 O    0.845
   543   1 H    0.989 --   526 C    0.945
   544   1 H    0.996 --   528 C    0.953
   545   1 H    0.937 --   532 N    0.878
   546   1 H    0.944 --   532 N    0.925
   547   1 H    0.998 --   534 C    0.957
   548  15 P    5.394 --   550 O    1.725   549 O    1.366   523 O    1.117
                           551 O    1.116
   549   8 O    2.264 --   548 P    1.366   579 H    0.736
   550   8 O    1.935 --   548 P    1.725
   551   8 O    2.240 --   548 P    1.116   552 C    0.925
   552   6 C    3.910 --   553 C    0.989   568 H    0.961   569 H    0.958
                           551 O    0.925
   553   6 C    3.938 --   552 C    0.989   555 C    0.969   554 O    0.950
                           570 H    0.949
   554   8 O    2.072 --   559 C    0.988   553 C    0.950
   555   6 C    3.963 --   556 O    1.009   553 C    0.969   557 C    0.961
                           571 H    0.954
   556   8 O    1.931 --   555 C    1.009   572 H    0.845
   557   6 C    3.961 --   558 O    1.005   573 H    0.961   555 C    0.961
                           559 C    0.957
   558   8 O    1.939 --   557 C    1.005   574 H    0.851
   559   6 C    3.924 --   554 O    0.988   557 C    0.957   575 H    0.947
                           560 N    0.937
   560   7 N    3.578 --   567 C    1.196   561 C    1.103   559 C    0.937
                           562 O    0.125
   561   6 C    3.959 --   562 O    1.607   563 N    1.169   560 N    1.103
   562   8 O    1.950 --   561 C    1.607   563 N    0.135   560 N    0.125
   563   7 N    3.539 --   561 C    1.169   564 C    1.145   576 H    0.853
                           565 O    0.139   562 O    0.135
   564   6 C    3.946 --   565 O    1.616   563 N    1.145   566 C    1.109
   565   8 O    1.967 --   564 C    1.616   563 N    0.139
   566   6 C    3.979 --   567 C    1.669   564 C    1.109   577 H    0.962
   567   6 C    3.957 --   566 C    1.669   560 N    1.196   578 H    0.947
   568   1 H    0.990 --   552 C    0.961
   569   1 H    0.991 --   552 C    0.958
   570   1 H    0.990 --   553 C    0.949
   571   1 H    0.996 --   555 C    0.954
   572   1 H    0.861 --   556 O    0.845
   573   1 H    0.996 --   557 C    0.961
   574   1 H    0.865 --   558 O    0.851
   575   1 H    0.989 --   559 C    0.947
   576   1 H    0.933 --   563 N    0.853
   577   1 H    0.990 --   566 C    0.962
   578   1 H    0.989 --   567 C    0.947
   579   1 H    0.776 --   549 O    0.736
   580   1 H    0.779 --   516 O    0.743
   581   1 H    0.771 --   485 O    0.736
   582   1 H    0.763 --   454 O    0.729
   583   1 H    0.759 --   421 O    0.727
   584   1 H    0.756 --   390 O    0.723
   585   1 H    0.757 --   356 O    0.724
   586   1 H    0.760 --   324 O    0.726
   587   1 H    0.787 --   261 O    0.744
   588   1 H    0.772 --   228 O    0.734
   589   1 H    0.764 --   198 O    0.727
   590   1 H    0.762 --   130 O    0.726
   591   1 H    0.755 --    97 O    0.719
   592   1 H    0.760 --    64 O    0.723
   593   1 H    0.768 --    32 O    0.731
   594   1 H    0.795 --   182 O    0.752
 ---------------------------------------------------------------------------

Topologies differ in total number of bonds
Writing topology from bond orders to xtbtopo.mol

molecular dipole:
                 x           y           z       tot (Debye)
 q only:        0.293      15.281       3.633
   full:        1.440      15.976       2.416      41.232
molecular quadrupole (traceless):
                xx          xy          yy          xz          yz          zz
 q only:     -575.332     852.334     850.133     654.892    1574.552    -274.801
  q+dip:     -425.671     961.446     926.911     679.454    1545.192    -501.241
   full:     -409.198     979.642     923.644     670.923    1538.960    -514.445


           -------------------------------------------------
          | TOTAL ENERGY            -1186.260299333220 Eh   |
          | GRADIENT NORM               0.593806361582 Eh/α |
          | HOMO-LUMO GAP               2.294028553136 eV   |
           -------------------------------------------------
########################################################################
[WARNING] Runtime exception occurred
-2- restart_readRestart: Dimension missmatch in restart file.
-1- restart_readRestart: Number of electron missmatch in restart file.
########################################################################

------------------------------------------------------------------------
 * finished run on 2023/03/09 at 13:52:14.683     
------------------------------------------------------------------------
 total:
 * wall-time:     0 d,  0 h,  0 min,  8.205 sec
 *  cpu-time:     0 d,  0 h,  1 min, 18.499 sec
 * ratio c/w:     9.567 speedup
 SCF:
 * wall-time:     0 d,  0 h,  0 min,  7.546 sec
 *  cpu-time:     0 d,  0 h,  1 min, 12.780 sec
 * ratio c/w:     9.645 speedup

