      -----------------------------------------------------------      
     |                   =====================                   |     
     |                           x T B                           |     
     |                   =====================                   |     
     |                         S. Grimme                         |     
     |          Mulliken Center for Theoretical Chemistry        |     
     |                    University of Bonn                     |     
      -----------------------------------------------------------      

   * xtb version 6.5.1 (579679a) compiled by 'ehlert@majestix' on 2022-07-11

   xtb is free software: you can redistribute it and/or modify it under
   the terms of the GNU Lesser General Public License as published by
   the Free Software Foundation, either version 3 of the License, or
   (at your option) any later version.
   
   xtb is distributed in the hope that it will be useful,
   but WITHOUT ANY WARRANTY; without even the implied warranty of
   MERCHANTABILITY or FITNESS FOR A PARTICULAR PURPOSE.  See the
   GNU Lesser General Public License for more details.
   
   Cite this work as:
   * C. Bannwarth, E. Caldeweyher, S. Ehlert, A. Hansen, P. Pracht,
     J. Seibert, S. Spicher, S. Grimme, WIREs Comput. Mol. Sci., 2020, 11,
     e01493. DOI: 10.1002/wcms.1493
   
   for GFN2-xTB:
   * C. Bannwarth, S. Ehlert and S. Grimme., J. Chem. Theory Comput., 2019,
     15, 1652-1671. DOI: 10.1021/acs.jctc.8b01176
   for GFN1-xTB:
   * S. Grimme, C. Bannwarth, P. Shushkov, J. Chem. Theory Comput., 2017,
     13, 1989-2009. DOI: 10.1021/acs.jctc.7b00118
   for GFN0-xTB:
   * P. Pracht, E. Caldeweyher, S. Ehlert, S. Grimme, ChemRxiv, 2019, preprint.
     DOI: 10.26434/chemrxiv.8326202.v1
   for GFN-FF:
   * S. Spicher and S. Grimme, Angew. Chem. Int. Ed., 2020, 59, 15665-15673.
     DOI: 10.1002/anie.202004239
   
   for ALPB and GBSA implicit solvation:
   * S. Ehlert, M. Stahn, S. Spicher, S. Grimme, J. Chem. Theory Comput.,
     2021, 17, 4250-4261. DOI: 10.1021/acs.jctc.1c00471
   
   for DFT-D4:
   * E. Caldeweyher, C. Bannwarth and S. Grimme, J. Chem. Phys., 2017,
     147, 034112. DOI: 10.1063/1.4993215
   * E. Caldeweyher, S. Ehlert, A. Hansen, H. Neugebauer, S. Spicher,
     C. Bannwarth and S. Grimme, J. Chem. Phys., 2019, 150, 154122.
     DOI: 10.1063/1.5090222
   * E. Caldeweyher, J.-M. Mewes, S. Ehlert and S. Grimme, Phys. Chem. Chem. Phys.
     2020, 22, 8499-8512. DOI: 10.1039/D0CP00502A
   
   for sTDA-xTB:
   * S. Grimme and C. Bannwarth, J. Chem. Phys., 2016, 145, 054103.
     DOI: 10.1063/1.4959605
   
   in the mass-spec context:
   * V. Asgeirsson, C. Bauer and S. Grimme, Chem. Sci., 2017, 8, 4879.
     DOI: 10.1039/c7sc00601b
   * J. Koopman and S. Grimme, ACS Omega 2019, 4, 12, 15120-15133.
     DOI: 10.1021/acsomega.9b02011
   
   for metadynamics refer to:
   * S. Grimme, J. Chem. Theory Comput., 2019, 155, 2847-2862
     DOI: 10.1021/acs.jctc.9b00143
   
   for SPH calculations refer to:
   * S. Spicher and S. Grimme, J. Chem. Theory Comput., 2021, 17, 1701-1714
     DOI: 10.1021/acs.jctc.0c01306
   
   with help from (in alphabetical order)
   P. Atkinson, C. Bannwarth, F. Bohle, G. Brandenburg, E. Caldeweyher
   M. Checinski, S. Dohm, S. Ehlert, S. Ehrlich, I. Gerasimov, C. Hölzer
   A. Katbashev, J. Koopman, C. Lavigne, S. Lehtola, F. März, M. Müller,
   F. Musil, H. Neugebauer, J. Pisarek, C. Plett, P. Pracht, F. Pultar,
   J. Seibert, P. Shushkov, S. Spicher, M. Stahn, M. Steiner, T. Strunk,
   J. Stückrath, T. Rose, and J. Unsleber
   
 * started run on 2023/03/09 at 13:52:21.494     

           -------------------------------------------------
          |                Calculation Setup                |
           -------------------------------------------------

          program call               : /N/u/schandy/BigRed3/bin/xtb-6.5.1/bin/xtb 2lfx.xyz --gbsa water
          hostname                   : nid00057
          coordinate file            : 2lfx.xyz
          omp threads                :                    10

   ID    Z sym.   atoms
    1    8 O      1, 4, 6, 14, 33-35, 38, 40, 45, 48, 65-67, 70, 72, 80,
                  98-100, 103, 105, 110, 135, 141, 143, 145, 147, 148,
                  159-161, 164, 166, 171, 174, 191-193, 196, 198, 206,
                  224-226, 229, 231, 236, 239, 256-258, 261, 263, 268, 271,
                  288-290, 293, 295, 300, 303, 320-322, 325, 327, 335,
                  353-355, 358, 360, 365, 368, 385, 388, 390, 416-418, 421,
                  423, 428, 446-448, 451, 453, 478-480, 483, 485, 510-512,
                  515, 517, 542-544, 547, 549, 554, 572-574, 577, 579,
                  604-606, 609, 611, 616, 619, 636-638, 641, 643, 651,
                  669-671, 674, 676, 681, 699-701, 704, 706, 731-733, 736,
                  738, 743
    2    6 C      2, 3, 5, 7, 8, 10, 12, 13, 16, 19, 36, 37, 39, 41, 42, 44,
                  47, 49-51, 68, 69, 71, 73, 74, 76, 78, 79, 82, 85, 101,
                  102, 104, 106, 107, 109, 112, 114, 115, 129, 132-134, 137,
                  139, 140, 142, 144, 146, 162, 163, 165, 167, 168, 170, 173,
                  175-177, 194, 195, 197, 199, 200, 202, 204, 205, 208, 211,
                  227, 228, 230, 232, 233, 235, 238, 240-242, 259, 260, 262,
                  264, 265, 267, 270, 272-274, 291, 292, 294, 296, 297, 299,
                  302, 304-306, 323, 324, 326, 328, 329, 331, 333, 334, 337,
                  340, 356, 357, 359, 361, 362, 364, 367, 369-371, 386, 387,
                  389, 391, 392, 394, 396, 397, 400, 402, 419, 420, 422, 424,
                  425, 427, 430, 432, 433, 449, 450, 452, 454, 455, 457, 459,
                  460, 463, 465, 481, 482, 484, 486, 487, 489, 491, 492, 495,
                  497, 513, 514, 516, 518, 519, 521, 523, 524, 527, 529, 545,
                  546, 548, 550, 551, 553, 556, 558, 559, 575, 576, 578, 580,
                  581, 583, 585, 586, 589, 591, 607, 608, 610, 612, 613, 615,
                  618, 620-622, 639, 640, 642, 644, 645, 647, 649, 650, 653,
                  656, 672, 673, 675, 677, 678, 680, 683, 685, 686, 702, 703,
                  705, 707, 708, 710, 712, 713, 716, 718, 734, 735, 737, 739,
                  740, 742, 745, 747, 748
    3    7 N      9, 11, 15, 17, 18, 43, 46, 75, 77, 81, 83, 84, 108, 111,
                  113, 128, 130, 131, 136, 138, 169, 172, 201, 203, 207, 209,
                  210, 234, 237, 266, 269, 298, 301, 330, 332, 336, 338, 339,
                  363, 366, 393, 395, 398, 399, 401, 426, 429, 431, 456, 458,
                  461, 462, 464, 488, 490, 493, 494, 496, 520, 522, 525, 526,
                  528, 552, 555, 557, 582, 584, 587, 588, 590, 614, 617, 646,
                  648, 652, 654, 655, 679, 682, 684, 709, 711, 714, 715, 717,
                  741, 744, 746
    4    1 H      20-31, 52-63, 86-96, 116-126, 149-157, 178-189, 212-222,
                  243-254, 275-286, 307-318, 341-351, 372-384, 403-414,
                  434-444, 466-476, 498-508, 530-540, 560-570, 592-602,
                  623-634, 657-667, 687-697, 719-729, 749-782
    5   15 P      32, 64, 97, 127, 158, 190, 223, 255, 287, 319, 352, 415,
                  445, 477, 509, 541, 571, 603, 635, 668, 698, 730

molecular fragmentation (1/2 indicates fragments):
111111111111111111111111111111111111111111111111111111111111111111111111
111111111111111111111111111111111111111111111111111111111111111111111111
111111111111111111111111111111111111111111111111111111111111111111111111
111111111111111111111111111111111111111111111111111111111111111111111111
111111111111111111111111111111111111111111111111111111111111111111111111
111111111111111111111111222222222222222222222222222222222222222222222222
222222222222222222222222222222222222222222222222222222222222222222222222
222222222222222222222222222222222222222222222222222222222222222222222222
222222222222222222222222222222222222222222222222222222222222222222222222
222222222222222222222222222222222222222222222222222222222222222222222222
22222222222222222222222222222222222222221111111111122222222222
# atoms in fragment 1/2:   395   387
 fragment masses (1/2) :     3696.40     3607.41
CMA distance (Bohr)    :   2.650
constraining FC (au)   :  0.0500

           -------------------------------------------------
          |                 G F N 2 - x T B                 |
           -------------------------------------------------

        Reference                      10.1021/acs.jctc.8b01176
      * Hamiltonian:
        H0-scaling (s, p, d)           1.850000    2.230000    2.230000
        zeta-weighting                 0.500000
      * Dispersion:
        s8                             2.700000
        a1                             0.520000
        a2                             5.000000
        s9                             5.000000
      * Repulsion:
        kExp                           1.500000    1.000000
        rExp                           1.000000
      * Coulomb:
        alpha                          2.000000
        third order                    shell-resolved
        anisotropic                    true
        a3                             3.000000
        a5                             4.000000
        cn-shift                       1.200000
        cn-exp                         4.000000
        max-rad                        5.000000

      * Solvation model:               GBSA
        Solvent                        water
        Parameter file                 internal GFN2-xTB/GBSA
        Dielectric constant                8.0200E+01
        Reference state                gsolv [1 M gas/solution]
        Free energy shift                  1.8574E-03 Eh       1.1656E+00 kcal/mol
        Temperature                        2.9815E+02 K
        Density                            1.0000E+00 kg/L
        Solvent mass                       1.8000E+01 g/mol
        Interaction kernel             Still
        Born radius scaling (c1)           1.5524E+00
        Born radii integrator          GBOBC
        Born offset                        2.4628E-02 a0       4.6540E-02 AA
        H-bond correction              true
        Ion screening                  false
        Surface tension                    1.0000E-05 Eh       1.5569E+01 dyn/cm
        Grid points                               230 per atom
q/qsh data taken from xtbrestart
CAMM data taken from xtbrestart

          ...................................................
          :                      SETUP                      :
          :.................................................:
          :  # basis functions                2375          :
          :  # atomic orbitals                2353          :
          :  # shells                         1291          :
          :  # electrons                      2636          :
          :  max. iterations                   250          :
          :  Hamiltonian                  GFN2-xTB          :
          :  restarted?                       true          :
          :  GBSA solvation                   true          :
          :  PC potential                    false          :
          :  electronic temp.          300.0000000     K    :
          :  accuracy                    1.0000000          :
          :  -> integral cutoff          0.2500000E+02      :
          :  -> integral neglect         0.1000000E-07      :
          :  -> SCF convergence          0.1000000E-05 Eh   :
          :  -> wf. convergence          0.1000000E-03 e    :
          :  Broyden damping             0.4000000          :
          ...................................................

 iter      E             dE          RMSdq      gap      omega  full diag
   1  -1563.2392013 -0.156324E+04  0.219E-01    2.25       0.0  T
   2  -1563.2515825 -0.123813E-01  0.874E-02    2.34       1.0  T
   3  -1563.2530966 -0.151409E-02  0.509E-02    2.31       1.0  T
   4  -1563.2536476 -0.550973E-03  0.263E-02    2.32       1.0  T
   5  -1563.2538562 -0.208606E-03  0.991E-03    2.32       1.0  T
   6  -1563.2538756 -0.193852E-04  0.516E-03    2.32       1.0  T
   7  -1563.2538813 -0.569393E-05  0.259E-03    2.32       1.4  T
   8  -1563.2538826 -0.133463E-05  0.140E-03    2.32       2.6  T
   9  -1563.2538829 -0.308066E-06  0.675E-04    2.32       5.3  T
  10  -1563.2538830 -0.113720E-06  0.320E-04    2.32      11.2  T

   *** convergence criteria satisfied after 10 iterations ***

         #    Occupation            Energy/Eh            Energy/eV
      -------------------------------------------------------------
         1        2.0000           -0.7815566             -21.2672
       ...           ...                  ...                  ...
      1312        2.0000           -0.3832879             -10.4298
      1313        2.0000           -0.3818285             -10.3901
      1314        2.0000           -0.3802197             -10.3463
      1315        2.0000           -0.3795696             -10.3286
      1316        2.0000           -0.3794913             -10.3265
      1317        2.0000           -0.3782327             -10.2922
      1318        2.0000           -0.3703279             -10.0771 (HOMO)
      1319                         -0.2849379              -7.7536 (LUMO)
      1320                         -0.2833564              -7.7105
      1321                         -0.2802685              -7.6265
      1322                         -0.2798852              -7.6161
      1323                         -0.2789257              -7.5900
       ...                                ...                  ...
      2353                          1.3410026              36.4905
      -------------------------------------------------------------
                  HL-Gap            0.0853900 Eh            2.3236 eV
             Fermi-level           -0.3276329 Eh           -8.9153 eV

 SCC (total)                   0 d,  0 h,  0 min, 10.889 sec
 SCC setup                      ...        0 min,  0.088 sec (  0.812%)
 Dispersion                     ...        0 min,  0.303 sec (  2.782%)
 classical contributions        ...        0 min,  0.004 sec (  0.037%)
 integral evaluation            ...        0 min,  0.653 sec (  5.993%)
 iterations                     ...        0 min,  7.420 sec ( 68.142%)
 molecular gradient             ...        0 min,  2.312 sec ( 21.227%)
 printout                       ...        0 min,  0.110 sec (  1.006%)

         :::::::::::::::::::::::::::::::::::::::::::::::::::::
         ::                     SUMMARY                     ::
         :::::::::::::::::::::::::::::::::::::::::::::::::::::
         :: total energy           -1548.384852402356 Eh    ::
         :: total w/o Gsasa/hb     -1548.138462791306 Eh    ::
         :: gradient norm              0.714103832088 Eh/a0 ::
         :: HOMO-LUMO gap              2.323581210177 eV    ::
         ::.................................................::
         :: SCC energy             -1563.253883023975 Eh    ::
         :: -> isotropic ES            5.214073204093 Eh    ::
         :: -> anisotropic ES         -0.303130861254 Eh    ::
         :: -> anisotropic XC          0.270957217436 Eh    ::
         :: -> dispersion             -1.335726458267 Eh    ::
         :: -> Gsolv                  -0.850247774732 Eh    ::
         ::    -> Gelec               -0.603858163682 Eh    ::
         ::    -> Gsasa               -0.014678892336 Eh    ::
         ::    -> Ghb                 -0.233568161841 Eh    ::
         ::    -> Gshift               0.001857443127 Eh    ::
         :: repulsion energy          14.755377700958 Eh    ::
         :: add. restraining           0.000000000000 Eh    ::
         :: total charge               0.000000000000 e     ::
         :::::::::::::::::::::::::::::::::::::::::::::::::::::

           -------------------------------------------------
          |                Property Printout                |
           -------------------------------------------------

    * Orbital Energies and Occupations

         #    Occupation            Energy/Eh            Energy/eV
      -------------------------------------------------------------
         1        2.0000           -0.7815566             -21.2672
       ...           ...                  ...                  ...
      1306        2.0000           -0.3885881             -10.5740
      1307        2.0000           -0.3882514             -10.5649
      1308        2.0000           -0.3881524             -10.5622
      1309        2.0000           -0.3879832             -10.5576
      1310        2.0000           -0.3872244             -10.5369
      1311        2.0000           -0.3846509             -10.4669
      1312        2.0000           -0.3832879             -10.4298
      1313        2.0000           -0.3818285             -10.3901
      1314        2.0000           -0.3802197             -10.3463
      1315        2.0000           -0.3795696             -10.3286
      1316        2.0000           -0.3794913             -10.3265
      1317        2.0000           -0.3782327             -10.2922
      1318        2.0000           -0.3703279             -10.0771 (HOMO)
      1319                         -0.2849379              -7.7536 (LUMO)
      1320                         -0.2833564              -7.7105
      1321                         -0.2802685              -7.6265
      1322                         -0.2798852              -7.6161
      1323                         -0.2789257              -7.5900
      1324                         -0.2773277              -7.5465
      1325                         -0.2761576              -7.5146
      1326                         -0.2743661              -7.4659
      1327                         -0.2743331              -7.4650
      1328                         -0.2741553              -7.4601
      1329                         -0.2730570              -7.4303
       ...                                ...                  ...
      2353                          1.3410026              36.4905
      -------------------------------------------------------------
                  HL-Gap            0.0853900 Eh            2.3236 eV
             Fermi-level           -0.3276329 Eh           -8.9153 eV

 * generalized Born model for continuum solvation

     #   Z     Born rad/Å   SASA/Å²    H-bond
     1   8 O        2.240    18.618    -0.003
     2   6 C        2.761     1.733    -0.000
     3   6 C        3.186     0.300    -0.000
     4   8 O        2.856     8.323    -0.001
     5   6 C        3.248     0.282    -0.000
     6   8 O        2.643     4.380    -0.001
     7   6 C        3.250     0.497    -0.000
     8   6 C        3.502     0.382    -0.000
     9   7 N        3.637     0.394    -0.000
    10   6 C        3.082     3.683    -0.000
    11   7 N        2.696    17.310    -0.005
    12   6 C        3.711     3.418    -0.000
    13   6 C        3.256     4.317    -0.000
    14   8 O        2.450    16.408    -0.002
    15   7 N        3.287     1.956    -0.001
    16   6 C        3.667     4.013    -0.000
    17   7 N        2.686     4.175    -0.001
    18   7 N        3.160     4.868    -0.001
    19   6 C        4.058     3.011    -0.000
    20   1 H        2.063    17.943    -0.024
    21   1 H        2.182     8.559    -0.011
    22   1 H        2.144    16.426    -0.022
    23   1 H        2.224     9.533    -0.013
    24   1 H        2.346     5.538    -0.007
    25   1 H        2.373     1.280    -0.002
    26   1 H        2.430     5.453    -0.007
    27   1 H        2.223     9.950    -0.013
    28   1 H        3.005     1.772    -0.002
    29   1 H        2.252    14.987    -0.020
    30   1 H        2.481     3.872    -0.005
    31   1 H        1.982    15.056    -0.020
    32  15 P        3.199     8.022    -0.001
    33   8 O        2.216    11.048    -0.002
    34   8 O        2.206    22.815    -0.003
    35   8 O        2.617     2.327    -0.000
    36   6 C        2.848     0.388    -0.000
    37   6 C        3.265     0.171    -0.000
    38   8 O        3.009     2.525    -0.000
    39   6 C        3.278     0.196    -0.000
    40   8 O        2.662     4.143    -0.001
    41   6 C        3.250     0.635    -0.000
    42   6 C        3.644     0.035    -0.000
    43   7 N        3.670     0.000    -0.000
    44   6 C        3.647     0.018    -0.000
    45   8 O        2.588     8.085    -0.001
    46   7 N        3.386     0.000    -0.000
    47   6 C        3.517     0.199    -0.000
    48   8 O        2.620     7.783    -0.001
    49   6 C        3.695     0.633    -0.000
    50   6 C        2.730     2.844    -0.000
    51   6 C        3.436     1.708    -0.000
    52   1 H        2.171    11.249    -0.015
    53   1 H        2.131    13.914    -0.019
    54   1 H        2.222    14.701    -0.020
    55   1 H        2.230     9.092    -0.012
    56   1 H        2.322     9.721    -0.013
    57   1 H        2.341     2.484    -0.003
    58   1 H        2.478     4.698    -0.006
    59   1 H        3.069     0.008    -0.000
    60   1 H        2.113    19.600    -0.026
    61   1 H        2.196     8.508    -0.011
    62   1 H        2.154    12.444    -0.017
    63   1 H        2.382     4.044    -0.005
    64  15 P        3.209     7.404    -0.001
    65   8 O        2.224    10.605    -0.001
    66   8 O        2.205    23.230    -0.003
    67   8 O        2.617     2.277    -0.000
    68   6 C        2.846     0.416    -0.000
    69   6 C        3.267     0.135    -0.000
    70   8 O        2.986     4.080    -0.001
    71   6 C        3.283     0.115    -0.000
    72   8 O        2.660     4.012    -0.001
    73   6 C        3.269     0.479    -0.000
    74   6 C        3.605     0.454    -0.000
    75   7 N        3.871     0.091    -0.000
    76   6 C        3.338     1.586    -0.000
    77   7 N        3.018     6.647    -0.002
    78   6 C        4.407     0.045    -0.000
    79   6 C        3.818     0.031    -0.000
    80   8 O        2.751     5.930    -0.001
    81   7 N        3.804     0.005    -0.000
    82   6 C        4.025     0.203    -0.000
    83   7 N        2.808     1.296    -0.000
    84   7 N        3.281     4.837    -0.001
    85   6 C        4.484     0.925    -0.000
    86   1 H        2.163    12.047    -0.016
    87   1 H        2.136    14.048    -0.019
    88   1 H        2.234    14.167    -0.019
    89   1 H        2.245     8.541    -0.011
    90   1 H        2.319     9.670    -0.013
    91   1 H        2.386     0.789    -0.001
    92   1 H        2.459     7.223    -0.010
    93   1 H        2.336     7.076    -0.009
    94   1 H        3.507     0.008    -0.000
    95   1 H        2.279    19.917    -0.027
    96   1 H        2.661     2.644    -0.004
    97  15 P        3.216     7.705    -0.001
    98   8 O        2.225    10.814    -0.001
    99   8 O        2.207    23.508    -0.003
   100   8 O        2.635     2.251    -0.000
   101   6 C        2.867     0.428    -0.000
   102   6 C        3.311     0.169    -0.000
   103   8 O        3.035     3.589    -0.000
   104   6 C        3.320     0.273    -0.000
   105   8 O        2.732     3.599    -0.000
   106   6 C        3.294     1.090    -0.000
   107   6 C        3.757     0.129    -0.000
   108   7 N        3.702     0.322    -0.000
   109   6 C        3.773     0.069    -0.000
   110   8 O        2.882     4.094    -0.001
   111   7 N        3.705     0.001    -0.000
   112   6 C        3.818     0.904    -0.000
   113   7 N        2.741     1.167    -0.000
   114   6 C        3.312     4.312    -0.000
   115   6 C        3.329     3.723    -0.000
   116   1 H        2.182    11.583    -0.015
   117   1 H        2.139    13.934    -0.019
   118   1 H        2.238    14.794    -0.020
   119   1 H        2.226    10.035    -0.013
   120   1 H        2.327     9.395    -0.013
   121   1 H        2.361     6.523    -0.009
   122   1 H        2.650     2.815    -0.004
   123   1 H        2.247    14.881    -0.020
   124   1 H        2.637     1.579    -0.002
   125   1 H        2.172    15.069    -0.020
   126   1 H        2.312     7.016    -0.009
   127  15 P        3.279     7.750    -0.001
   128   7 N        3.730     0.000    -0.000
   129   6 C        4.050     0.068    -0.000
   130   7 N        2.800     0.961    -0.000
   131   7 N        3.329     5.457    -0.002
   132   6 C        4.705     0.004    -0.000
   133   6 C        4.487     0.073    -0.000
   134   6 C        3.736     0.067    -0.000
   135   8 O        2.603     8.017    -0.001
   136   7 N        3.162     2.545    -0.001
   137   6 C        4.216     0.505    -0.000
   138   7 N        4.397     0.681    -0.000
   139   6 C        3.613     1.160    -0.000
   140   6 C        3.471     0.360    -0.000
   141   8 O        2.266     7.786    -0.001
   142   6 C        3.522     0.315    -0.000
   143   8 O        2.657     6.856    -0.001
   144   6 C        3.522     0.364    -0.000
   145   8 O        2.921    13.727    -0.002
   146   6 C        3.603     0.004    -0.000
   147   8 O        2.760     1.600    -0.000
   148   8 O        2.212    23.834    -0.003
   149   1 H        3.130     0.011    -0.000
   150   1 H        2.295    15.120    -0.020
   151   1 H        2.370     6.995    -0.009
   152   1 H        2.640     0.369    -0.000
   153   1 H        2.534     5.480    -0.007
   154   1 H        2.277    17.996    -0.024
   155   1 H        2.473     0.790    -0.001
   156   1 H        2.219    10.245    -0.014
   157   1 H        2.447     6.853    -0.009
   158  15 P        3.252     7.542    -0.001
   159   8 O        2.231    10.687    -0.001
   160   8 O        2.226    21.093    -0.003
   161   8 O        2.741     0.840    -0.000
   162   6 C        2.901     0.448    -0.000
   163   6 C        3.287     0.227    -0.000
   164   8 O        3.000     6.288    -0.001
   165   6 C        3.301     0.289    -0.000
   166   8 O        2.667     4.204    -0.001
   167   6 C        3.327     0.453    -0.000
   168   6 C        3.659     0.406    -0.000
   169   7 N        3.685     0.123    -0.000
   170   6 C        3.565     0.534    -0.000
   171   8 O        2.563    10.252    -0.001
   172   7 N        3.297     0.001    -0.000
   173   6 C        3.488     0.861    -0.000
   174   8 O        2.627     8.368    -0.001
   175   6 C        3.736     1.433    -0.000
   176   6 C        2.783     2.713    -0.000
   177   6 C        3.524     1.585    -0.000
   178   1 H        2.208     9.972    -0.013
   179   1 H        2.152    12.935    -0.017
   180   1 H        2.200    15.809    -0.021
   181   1 H        2.244     9.336    -0.012
   182   1 H        2.378     9.448    -0.013
   183   1 H        2.427     1.143    -0.002
   184   1 H        2.469     4.954    -0.007
   185   1 H        2.937     0.182    -0.000
   186   1 H        2.128    19.198    -0.026
   187   1 H        2.275     5.575    -0.007
   188   1 H        2.220     7.718    -0.010
   189   1 H        2.500     1.346    -0.002
   190  15 P        3.218    10.379    -0.001
   191   8 O        2.220    15.090    -0.002
   192   8 O        2.203    23.574    -0.003
   193   8 O        2.658     2.056    -0.000
   194   6 C        2.896     0.375    -0.000
   195   6 C        3.298     0.169    -0.000
   196   8 O        3.044     2.425    -0.000
   197   6 C        3.308     0.187    -0.000
   198   8 O        2.673     4.074    -0.001
   199   6 C        3.335     0.390    -0.000
   200   6 C        3.668     0.385    -0.000
   201   7 N        3.960     0.034    -0.000
   202   6 C        3.369     0.744    -0.000
   203   7 N        2.945    10.414    -0.003
   204   6 C        4.276     0.221    -0.000
   205   6 C        3.673     0.216    -0.000
   206   8 O        2.646     9.134    -0.001
   207   7 N        3.816     0.000    -0.000
   208   6 C        4.276     0.003    -0.000
   209   7 N        2.946     0.124    -0.000
   210   7 N        3.446     1.867    -0.001
   211   6 C        4.592     0.083    -0.000
   212   1 H        2.208     9.556    -0.013
   213   1 H        2.173    11.187    -0.015
   214   1 H        2.226    15.062    -0.020
   215   1 H        2.248     8.829    -0.012
   216   1 H        2.368     6.455    -0.009
   217   1 H        2.430     0.821    -0.001
   218   1 H        2.476     7.008    -0.009
   219   1 H        2.392     5.724    -0.008
   220   1 H        3.458     0.003    -0.000
   221   1 H        2.387    11.904    -0.016
   222   1 H        2.749     1.382    -0.002
   223  15 P        3.227     9.931    -0.001
   224   8 O        2.225    15.122    -0.002
   225   8 O        2.208    23.541    -0.003
   226   8 O        2.659     2.134    -0.000
   227   6 C        2.903     0.378    -0.000
   228   6 C        3.318     0.151    -0.000
   229   8 O        3.111     1.764    -0.000
   230   6 C        3.316     0.173    -0.000
   231   8 O        2.659     4.483    -0.001
   232   6 C        3.387     0.212    -0.000
   233   6 C        3.780     0.005    -0.000
   234   7 N        3.916     0.000     0.000
   235   6 C        3.852     0.003    -0.000
   236   8 O        2.713     5.290    -0.001
   237   7 N        3.517     0.002    -0.000
   238   6 C        3.626     0.004    -0.000
   239   8 O        2.654     6.843    -0.001
   240   6 C        3.901     0.001    -0.000
   241   6 C        2.805     2.219    -0.000
   242   6 C        3.637     0.013    -0.000
   243   1 H        2.204    10.423    -0.014
   244   1 H        2.192    10.598    -0.014
   245   1 H        2.239    14.887    -0.020
   246   1 H        2.258     8.856    -0.012
   247   1 H        2.417     4.901    -0.007
   248   1 H        2.483     0.406    -0.001
   249   1 H        2.505     4.929    -0.007
   250   1 H        3.191     0.011    -0.000
   251   1 H        2.144    15.886    -0.021
   252   1 H        2.277     7.567    -0.010
   253   1 H        2.233     8.986    -0.012
   254   1 H        2.480     2.344    -0.003
   255  15 P        3.220    10.038    -0.001
   256   8 O        2.218    15.136    -0.002
   257   8 O        2.206    23.744    -0.003
   258   8 O        2.649     2.864    -0.000
   259   6 C        2.886     0.401    -0.000
   260   6 C        3.311     0.152    -0.000
   261   8 O        3.128     1.473    -0.000
   262   6 C        3.307     0.094    -0.000
   263   8 O        2.639     5.255    -0.001
   264   6 C        3.366     0.163    -0.000
   265   6 C        3.726     0.039    -0.000
   266   7 N        3.842     0.000     0.000
   267   6 C        3.731     0.000     0.000
   268   8 O        2.668     4.993    -0.001
   269   7 N        3.463     0.000    -0.000
   270   6 C        3.587     0.000    -0.000
   271   8 O        2.621     7.662    -0.001
   272   6 C        3.872     0.000    -0.000
   273   6 C        2.782     2.276    -0.000
   274   6 C        3.616     0.027    -0.000
   275   1 H        2.202    10.666    -0.014
   276   1 H        2.156    11.945    -0.016
   277   1 H        2.243    14.576    -0.019
   278   1 H        2.266     8.242    -0.011
   279   1 H        2.411     4.577    -0.006
   280   1 H        2.470     0.110    -0.000
   281   1 H        2.463     7.981    -0.011
   282   1 H        3.222     0.003    -0.000
   283   1 H        2.197    11.446    -0.015
   284   1 H        2.139    15.533    -0.021
   285   1 H        2.242     6.233    -0.008
   286   1 H        2.471     3.379    -0.005
   287  15 P        3.218     9.971    -0.001
   288   8 O        2.220    15.137    -0.002
   289   8 O        2.205    23.846    -0.003
   290   8 O        2.653     2.537    -0.000
   291   6 C        2.881     0.404    -0.000
   292   6 C        3.285     0.145    -0.000
   293   8 O        3.047     3.056    -0.000
   294   6 C        3.284     0.129    -0.000
   295   8 O        2.631     5.081    -0.001
   296   6 C        3.327     0.138    -0.000
   297   6 C        3.641     0.350    -0.000
   298   7 N        3.694     0.008    -0.000
   299   6 C        3.639     0.033    -0.000
   300   8 O        2.622     6.630    -0.001
   301   7 N        3.380     0.000    -0.000
   302   6 C        3.496     0.755    -0.000
   303   8 O        2.604     8.311    -0.001
   304   6 C        3.732     1.166    -0.000
   305   6 C        2.765     2.804    -0.000
   306   6 C        3.485     1.318    -0.000
   307   1 H        2.190    11.666    -0.016
   308   1 H        2.166    11.502    -0.015
   309   1 H        2.231    14.656    -0.020
   310   1 H        2.256     8.410    -0.011
   311   1 H        2.362     9.036    -0.012
   312   1 H        2.452     0.100    -0.000
   313   1 H        2.430     8.743    -0.012
   314   1 H        3.178     0.000    -0.000
   315   1 H        2.272     3.888    -0.005
   316   1 H        2.190    10.963    -0.015
   317   1 H        2.116    19.646    -0.026
   318   1 H        2.423     3.622    -0.005
   319  15 P        3.218     9.972    -0.001
   320   8 O        2.222    15.134    -0.002
   321   8 O        2.204    23.676    -0.003
   322   8 O        2.667     1.450    -0.000
   323   6 C        2.884     0.436    -0.000
   324   6 C        3.264     0.211    -0.000
   325   8 O        2.961     5.544    -0.001
   326   6 C        3.279     0.280    -0.000
   327   8 O        2.644     4.850    -0.001
   328   6 C        3.338     0.253    -0.000
   329   6 C        3.613     0.651    -0.000
   330   7 N        3.884     0.118    -0.000
   331   6 C        3.376     0.429    -0.000
   332   7 N        2.976     7.847    -0.002
   333   6 C        4.280     0.095    -0.000
   334   6 C        3.665     0.107    -0.000
   335   8 O        2.653     7.446    -0.001
   336   7 N        3.686     0.004    -0.000
   337   6 C        4.017     0.019    -0.000
   338   7 N        2.797     0.728    -0.000
   339   7 N        3.313     3.164    -0.001
   340   6 C        4.469     0.228    -0.000
   341   1 H        2.181    11.665    -0.016
   342   1 H        2.181    10.477    -0.014
   343   1 H        2.205    15.249    -0.020
   344   1 H        2.239     9.751    -0.013
   345   1 H        2.384     5.790    -0.008
   346   1 H        2.448     0.459    -0.001
   347   1 H        2.474     5.360    -0.007
   348   1 H        2.389     5.293    -0.007
   349   1 H        3.301     0.097    -0.000
   350   1 H        2.285    16.628    -0.022
   351   1 H        2.596     3.144    -0.004
   352  15 P        3.218     9.913    -0.001
   353   8 O        2.218    15.194    -0.002
   354   8 O        2.205    23.208    -0.003
   355   8 O        2.702     0.789    -0.000
   356   6 C        2.905     0.511    -0.000
   357   6 C        3.246     0.192    -0.000
   358   8 O        3.034     1.431    -0.000
   359   6 C        3.130     0.430    -0.000
   360   8 O        2.287    14.325    -0.002
   361   6 C        3.081     1.324    -0.000
   362   6 C        3.502     0.006    -0.000
   363   7 N        3.523     0.356    -0.000
   364   6 C        3.330     3.648    -0.000
   365   8 O        2.441    15.455    -0.002
   366   7 N        3.078     1.996    -0.001
   367   6 C        3.249     3.806    -0.000
   368   8 O        2.455    14.706    -0.002
   369   6 C        3.579     2.124    -0.000
   370   6 C        2.734     2.765    -0.000
   371   6 C        3.406     2.444    -0.000
   372   1 H        2.210     9.132    -0.012
   373   1 H        2.185     9.823    -0.013
   374   1 H        2.192    14.683    -0.020
   375   1 H        2.189    12.313    -0.016
   376   1 H        1.944    20.190    -0.027
   377   1 H        2.271    10.720    -0.014
   378   1 H        2.142    17.160    -0.023
   379   1 H        2.366     9.110    -0.012
   380   1 H        2.823     2.554    -0.003
   381   1 H        2.209     8.392    -0.011
   382   1 H        2.085    19.539    -0.026
   383   1 H        2.228     8.782    -0.012
   384   1 H        2.446     1.976    -0.003
   385   8 O        2.223    18.709    -0.003
   386   6 C        2.720     1.704    -0.000
   387   6 C        3.159     0.168    -0.000
   388   8 O        2.840     6.611    -0.001
   389   6 C        3.227     0.264    -0.000
   390   8 O        2.649     3.958    -0.001
   391   6 C        3.187     0.484    -0.000
   392   6 C        3.434     0.447    -0.000
   393   7 N        3.530     0.575    -0.000
   394   6 C        3.025     7.256    -0.000
   395   7 N        2.707    15.219    -0.005
   396   6 C        3.889     3.050    -0.000
   397   6 C        3.614     3.515    -0.000
   398   7 N        2.598     3.641    -0.001
   399   7 N        3.244     2.128    -0.001
   400   6 C        3.108     5.505    -0.000
   401   7 N        2.890     7.857    -0.002
   402   6 C        3.940     3.287    -0.000
   403   1 H        2.054    18.213    -0.024
   404   1 H        2.111    12.959    -0.017
   405   1 H        2.153    15.871    -0.021
   406   1 H        2.217     9.292    -0.012
   407   1 H        2.282     9.834    -0.013
   408   1 H        2.321     1.968    -0.003
   409   1 H        2.402     5.791    -0.008
   410   1 H        2.167    14.338    -0.019
   411   1 H        2.171    18.997    -0.025
   412   1 H        2.445     2.863    -0.004
   413   1 H        2.256    11.704    -0.016
   414   1 H        1.957    17.833    -0.024
   415  15 P        3.203    10.010    -0.001
   416   8 O        2.214    15.067    -0.002
   417   8 O        2.208    22.262    -0.003
   418   8 O        2.624     2.065    -0.000
   419   6 C        2.859     0.402    -0.000
   420   6 C        3.249     0.153    -0.000
   421   8 O        2.972     3.668    -0.001
   422   6 C        3.268     0.118    -0.000
   423   8 O        2.651     4.213    -0.001
   424   6 C        3.250     0.458    -0.000
   425   6 C        3.590     0.283    -0.000
   426   7 N        3.619     0.004    -0.000
   427   6 C        3.597     0.050    -0.000
   428   8 O        2.712     5.782    -0.001
   429   7 N        3.599     0.002    -0.000
   430   6 C        3.790     0.077    -0.000
   431   7 N        2.738     0.212    -0.000
   432   6 C        3.284     3.102    -0.000
   433   6 C        3.308     1.922    -0.000
   434   1 H        2.169    11.132    -0.015
   435   1 H        2.166    10.593    -0.014
   436   1 H        2.216    14.677    -0.020
   437   1 H        2.237     8.689    -0.012
   438   1 H        2.317     9.943    -0.013
   439   1 H        2.365     1.230    -0.002
   440   1 H        2.435     6.278    -0.008
   441   1 H        2.234    16.096    -0.022
   442   1 H        2.640     1.808    -0.002
   443   1 H        2.160    14.892    -0.020
   444   1 H        2.300     5.802    -0.008
   445  15 P        3.206    10.136    -0.001
   446   8 O        2.221    15.009    -0.002
   447   8 O        2.199    23.650    -0.003
   448   8 O        2.638     2.503    -0.000
   449   6 C        2.872     0.381    -0.000
   450   6 C        3.278     0.131    -0.000
   451   8 O        2.999     3.266    -0.000
   452   6 C        3.275     0.080    -0.000
   453   8 O        2.657     3.807    -0.001
   454   6 C        3.245     0.514    -0.000
   455   6 C        3.607     0.242    -0.000
   456   7 N        3.853     0.040    -0.000
   457   6 C        3.280     3.754    -0.000
   458   7 N        2.955    10.009    -0.003
   459   6 C        4.534     0.228    -0.000
   460   6 C        4.201     0.009    -0.000
   461   7 N        2.816     0.178    -0.000
   462   7 N        3.736     0.000     0.000
   463   6 C        3.479     0.395    -0.000
   464   7 N        3.140     4.245    -0.001
   465   6 C        4.478     0.028    -0.000
   466   1 H        2.180    11.235    -0.015
   467   1 H        2.173    10.813    -0.014
   468   1 H        2.238    14.243    -0.019
   469   1 H        2.238     8.888    -0.012
   470   1 H        2.305    11.009    -0.015
   471   1 H        2.355     1.128    -0.002
   472   1 H        2.469     6.270    -0.008
   473   1 H        2.304     8.121    -0.011
   474   1 H        2.329    12.494    -0.017
   475   1 H        2.663     1.377    -0.002
   476   1 H        2.436     8.824    -0.012
   477  15 P        3.211     7.772    -0.001
   478   8 O        2.222    12.065    -0.002
   479   8 O        2.203    23.586    -0.003
   480   8 O        2.627     2.881    -0.000
   481   6 C        2.867     0.429    -0.000
   482   6 C        3.297     0.130    -0.000
   483   8 O        3.038     2.776    -0.000
   484   6 C        3.283     0.097    -0.000
   485   8 O        2.661     3.838    -0.001
   486   6 C        3.268     0.312    -0.000
   487   6 C        3.620     0.300    -0.000
   488   7 N        3.872     0.008    -0.000
   489   6 C        3.257     3.651    -0.000
   490   7 N        2.914    11.274    -0.003
   491   6 C        4.524     0.045    -0.000
   492   6 C        4.197     0.001    -0.000
   493   7 N        2.794     0.173    -0.000
   494   7 N        3.719     0.001    -0.000
   495   6 C        3.449     0.363    -0.000
   496   7 N        3.117     5.872    -0.002
   497   6 C        4.501     0.067    -0.000
   498   1 H        2.190    10.773    -0.014
   499   1 H        2.143    13.459    -0.018
   500   1 H        2.249    14.083    -0.019
   501   1 H        2.242     9.066    -0.012
   502   1 H        2.310    10.900    -0.015
   503   1 H        2.404     0.273    -0.000
   504   1 H        2.465     7.516    -0.010
   505   1 H        2.275     9.994    -0.013
   506   1 H        2.287    16.007    -0.021
   507   1 H        2.662     1.450    -0.002
   508   1 H        2.449     6.760    -0.009
   509  15 P        3.219     7.558    -0.001
   510   8 O        2.224    10.918    -0.001
   511   8 O        2.211    23.136    -0.003
   512   8 O        2.632     1.782    -0.000
   513   6 C        2.867     0.409    -0.000
   514   6 C        3.274     0.168    -0.000
   515   8 O        2.994     5.817    -0.001
   516   6 C        3.276     0.241    -0.000
   517   8 O        2.662     4.239    -0.001
   518   6 C        3.303     0.467    -0.000
   519   6 C        3.658     0.373    -0.000
   520   7 N        3.959     0.084    -0.000
   521   6 C        3.334     1.290    -0.000
   522   7 N        2.975     8.301    -0.002
   523   6 C        4.679     0.001    -0.000
   524   6 C        4.253     0.000    -0.000
   525   7 N        2.814     0.157    -0.000
   526   7 N        3.701     0.007    -0.000
   527   6 C        3.476     0.286    -0.000
   528   7 N        3.162     5.296    -0.002
   529   6 C        4.614     0.279    -0.000
   530   1 H        2.181    11.433    -0.015
   531   1 H        2.142    13.527    -0.018
   532   1 H        2.219    15.094    -0.020
   533   1 H        2.226    10.328    -0.014
   534   1 H        2.352     8.549    -0.011
   535   1 H        2.398     1.913    -0.003
   536   1 H        2.508     4.681    -0.006
   537   1 H        2.330     8.030    -0.011
   538   1 H        2.308    14.126    -0.019
   539   1 H        2.660     1.739    -0.002
   540   1 H        2.435     5.881    -0.008
   541  15 P        3.217     7.849    -0.001
   542   8 O        2.220    11.512    -0.002
   543   8 O        2.205    23.585    -0.003
   544   8 O        2.640     2.421    -0.000
   545   6 C        2.886     0.449    -0.000
   546   6 C        3.322     0.143    -0.000
   547   8 O        3.131     1.829    -0.000
   548   6 C        3.316     0.160    -0.000
   549   8 O        2.670     4.598    -0.001
   550   6 C        3.319     0.507    -0.000
   551   6 C        3.728     0.081    -0.000
   552   7 N        3.820     0.004    -0.000
   553   6 C        3.782     0.009    -0.000
   554   8 O        2.831     3.437    -0.000
   555   7 N        3.747     0.000    -0.000
   556   6 C        3.913     0.348    -0.000
   557   7 N        2.755     0.622    -0.000
   558   6 C        3.423     3.740    -0.000
   559   6 C        3.463     2.256    -0.000
   560   1 H        2.213     9.805    -0.013
   561   1 H        2.144    14.114    -0.019
   562   1 H        2.245    14.678    -0.020
   563   1 H        2.258     8.339    -0.011
   564   1 H        2.346    10.027    -0.013
   565   1 H        2.409     1.016    -0.001
   566   1 H        2.479     6.523    -0.009
   567   1 H        2.252    16.722    -0.022
   568   1 H        2.634     2.385    -0.003
   569   1 H        2.213    13.009    -0.017
   570   1 H        2.393     4.506    -0.006
   571  15 P        3.226     7.618    -0.001
   572   8 O        2.226    11.152    -0.002
   573   8 O        2.208    23.749    -0.003
   574   8 O        2.656     1.672    -0.000
   575   6 C        2.888     0.491    -0.000
   576   6 C        3.314     0.215    -0.000
   577   8 O        3.057     2.992    -0.000
   578   6 C        3.331     0.221    -0.000
   579   8 O        2.676     4.299    -0.001
   580   6 C        3.360     0.541    -0.000
   581   6 C        3.716     0.076    -0.000
   582   7 N        4.036     0.000    -0.000
   583   6 C        3.436     0.332    -0.000
   584   7 N        3.072     6.180    -0.002
   585   6 C        4.771     0.002    -0.000
   586   6 C        4.205     0.000    -0.000
   587   7 N        2.803     0.219    -0.000
   588   7 N        3.569     0.026    -0.000
   589   6 C        3.416     0.579    -0.000
   590   7 N        3.162     4.300    -0.001
   591   6 C        4.672     0.000    -0.000
   592   1 H        2.205    10.221    -0.014
   593   1 H        2.149    14.084    -0.019
   594   1 H        2.235    14.965    -0.020
   595   1 H        2.264     8.289    -0.011
   596   1 H        2.386     5.460    -0.007
   597   1 H        2.449     0.926    -0.001
   598   1 H        2.510     5.613    -0.007
   599   1 H        2.377     4.723    -0.006
   600   1 H        2.331    12.918    -0.017
   601   1 H        2.636     1.590    -0.002
   602   1 H        2.379    11.481    -0.015
   603  15 P        3.222     7.943    -0.001
   604   8 O        2.224    11.326    -0.002
   605   8 O        2.206    23.864    -0.003
   606   8 O        2.646     2.998    -0.000
   607   6 C        2.884     0.463    -0.000
   608   6 C        3.365     0.154    -0.000
   609   8 O        3.180     0.776    -0.000
   610   6 C        3.363     0.066    -0.000
   611   8 O        2.664     4.207    -0.001
   612   6 C        3.449     0.002    -0.000
   613   6 C        3.783     0.008    -0.000
   614   7 N        3.817     0.000    -0.000
   615   6 C        3.796     0.003    -0.000
   616   8 O        2.990     0.317    -0.000
   617   7 N        3.232     0.005    -0.000
   618   6 C        3.314     0.855    -0.000
   619   8 O        2.403    16.465    -0.002
   620   6 C        3.614     1.996    -0.000
   621   6 C        2.700     2.918    -0.000
   622   6 C        3.468     1.612    -0.000
   623   1 H        2.209    10.596    -0.014
   624   1 H        2.139    14.514    -0.019
   625   1 H        2.283    13.526    -0.018
   626   1 H        2.291     8.379    -0.011
   627   1 H        2.480     4.295    -0.006
   628   1 H        2.510     1.058    -0.001
   629   1 H        2.514     6.713    -0.009
   630   1 H        2.604     0.693    -0.001
   631   1 H        2.138    13.834    -0.018
   632   1 H        2.097    19.366    -0.026
   633   1 H        2.138    13.419    -0.018
   634   1 H        2.398     4.281    -0.006
   635  15 P        3.255     7.575    -0.001
   636   8 O        2.226    11.369    -0.002
   637   8 O        2.237    20.330    -0.003
   638   8 O        2.730     0.436    -0.000
   639   6 C        2.900     0.446    -0.000
   640   6 C        3.273     0.287    -0.000
   641   8 O        2.960     5.534    -0.001
   642   6 C        3.290     0.341    -0.000
   643   8 O        2.648     4.784    -0.001
   644   6 C        3.339     0.484    -0.000
   645   6 C        3.688     0.053    -0.000
   646   7 N        4.019     0.089    -0.000
   647   6 C        3.418     1.082    -0.000
   648   7 N        3.001     7.573    -0.002
   649   6 C        4.477     0.006    -0.000
   650   6 C        3.815     0.006    -0.000
   651   8 O        2.714     5.732    -0.001
   652   7 N        3.836     0.004    -0.000
   653   6 C        4.287     0.001    -0.000
   654   7 N        2.969     0.484    -0.000
   655   7 N        3.484     1.700    -0.001
   656   6 C        4.716     0.027    -0.000
   657   1 H        2.192    11.668    -0.016
   658   1 H        2.153    12.861    -0.017
   659   1 H        2.190    16.195    -0.022
   660   1 H        2.238     9.798    -0.013
   661   1 H        2.397     7.716    -0.010
   662   1 H        2.421     1.791    -0.002
   663   1 H        2.521     4.188    -0.006
   664   1 H        2.419     3.894    -0.005
   665   1 H        3.458     0.003    -0.000
   666   1 H        2.405    12.527    -0.017
   667   1 H        2.810     1.794    -0.002
   668  15 P        3.214    10.256    -0.001
   669   8 O        2.218    15.138    -0.002
   670   8 O        2.199    23.778    -0.003
   671   8 O        2.654     2.127    -0.000
   672   6 C        2.895     0.389    -0.000
   673   6 C        3.305     0.189    -0.000
   674   8 O        3.086     2.451    -0.000
   675   6 C        3.296     0.130    -0.000
   676   8 O        2.656     4.407    -0.001
   677   6 C        3.290     0.411    -0.000
   678   6 C        3.689     0.087    -0.000
   679   7 N        3.784    -0.029     0.000
   680   6 C        3.791     0.011    -0.000
   681   8 O        2.828     3.488    -0.000
   682   7 N        3.794     0.001    -0.000
   683   6 C        3.990     0.333    -0.000
   684   7 N        2.804     0.772    -0.000
   685   6 C        3.469     3.874    -0.000
   686   6 C        3.464     2.318    -0.000
   687   1 H        2.210    10.113    -0.014
   688   1 H        2.174    11.082    -0.015
   689   1 H        2.237    14.722    -0.020
   690   1 H        2.249     8.727    -0.012
   691   1 H        2.331    10.599    -0.014
   692   1 H        2.386     1.271    -0.002
   693   1 H        2.469     6.122    -0.008
   694   1 H        2.290    14.729    -0.020
   695   1 H        2.711     1.924    -0.003
   696   1 H        2.245    11.564    -0.015
   697   1 H        2.403     4.256    -0.006
   698  15 P        3.216     9.990    -0.001
   699   8 O        2.223    15.120    -0.002
   700   8 O        2.203    23.608    -0.003
   701   8 O        2.657     1.965    -0.000
   702   6 C        2.883     0.411    -0.000
   703   6 C        3.272     0.166    -0.000
   704   8 O        3.015     3.488    -0.000
   705   6 C        3.275     0.120    -0.000
   706   8 O        2.629     4.747    -0.001
   707   6 C        3.302     0.329    -0.000
   708   6 C        3.611     0.285    -0.000
   709   7 N        3.953     0.005    -0.000
   710   6 C        3.382     1.087    -0.000
   711   7 N        3.053     6.546    -0.002
   712   6 C        4.780     0.000     0.000
   713   6 C        4.266     0.000    -0.000
   714   7 N        2.837     0.407    -0.000
   715   7 N        3.615     0.001    -0.000
   716   6 C        3.371     0.673    -0.000
   717   7 N        3.110     5.018    -0.002
   718   6 C        4.593     0.019    -0.000
   719   1 H        2.184    11.288    -0.015
   720   1 H        2.181    10.886    -0.015
   721   1 H        2.220    14.803    -0.020
   722   1 H        2.255     8.212    -0.011
   723   1 H        2.340     8.546    -0.011
   724   1 H        2.460     0.363    -0.000
   725   1 H        2.442     8.169    -0.011
   726   1 H        2.352     6.856    -0.009
   727   1 H        2.381    10.440    -0.014
   728   1 H        2.654     1.753    -0.002
   729   1 H        2.353    10.812    -0.014
   730  15 P        3.199    10.482    -0.001
   731   8 O        2.215    15.178    -0.002
   732   8 O        2.194    24.041    -0.003
   733   8 O        2.680     1.419    -0.000
   734   6 C        2.871     0.534    -0.000
   735   6 C        3.236     0.236    -0.000
   736   8 O        3.005     2.922    -0.000
   737   6 C        3.131     0.415    -0.000
   738   8 O        2.273    15.579    -0.002
   739   6 C        3.031     1.223    -0.000
   740   6 C        3.444     0.099    -0.000
   741   7 N        3.500     0.161    -0.000
   742   6 C        3.373     3.842    -0.000
   743   8 O        2.590    10.906    -0.001
   744   7 N        3.293     3.299    -0.001
   745   6 C        3.598     3.664    -0.000
   746   7 N        2.642     3.623    -0.001
   747   6 C        3.295     4.580    -0.000
   748   6 C        3.299     2.928    -0.000
   749   1 H        2.182    11.049    -0.015
   750   1 H        2.163     8.922    -0.012
   751   1 H        2.200    14.949    -0.020
   752   1 H        2.233    10.340    -0.014
   753   1 H        1.956    17.923    -0.024
   754   1 H        2.197    14.935    -0.020
   755   1 H        2.145    16.329    -0.022
   756   1 H        2.338    10.945    -0.015
   757   1 H        2.213    15.571    -0.021
   758   1 H        2.447     4.546    -0.006
   759   1 H        2.193    11.901    -0.016
   760   1 H        2.345     5.392    -0.007
   761   1 H        1.889    23.846    -0.032
   762   1 H        1.893    23.891    -0.032
   763   1 H        1.894    23.978    -0.032
   764   1 H        1.911    23.902    -0.032
   765   1 H        1.895    23.940    -0.032
   766   1 H        1.954    16.238    -0.022
   767   1 H        1.968    15.693    -0.021
   768   1 H        1.951    16.270    -0.022
   769   1 H        1.959    15.840    -0.021
   770   1 H        1.965    15.711    -0.021
   771   1 H        1.961    15.713    -0.021
   772   1 H        1.953    15.933    -0.021
   773   1 H        1.959    15.798    -0.021
   774   1 H        1.899    22.993    -0.031
   775   1 H        1.894    23.931    -0.032
   776   1 H        1.894    23.914    -0.032
   777   1 H        1.898    23.916    -0.032
   778   1 H        1.895    23.977    -0.032
   779   1 H        1.896    23.973    -0.032
   780   1 H        1.958    15.977    -0.021
   781   1 H        1.969    15.400    -0.021
   782   1 H        1.960    15.671    -0.021

 total SASA / Å² :     4744.591

     #   Z          covCN         q      C6AA      α(0)
     1   8 O        1.655    -0.465    22.154     6.354
     2   6 C        3.675     0.060    19.795     6.375
     3   6 C        3.781     0.085    19.188     6.240
     4   8 O        1.699    -0.324    19.418     5.950
     5   6 C        3.958     0.111    18.693     6.143
     6   8 O        1.658    -0.342    19.763     6.001
     7   6 C        3.821    -0.094    22.274     6.716
     8   6 C        3.713     0.166    18.050     6.070
     9   7 N        2.820    -0.070    22.596     7.060
    10   6 C        3.150     0.096    25.612     8.278
    11   7 N        1.873    -0.292    28.409     7.901
    12   6 C        3.195    -0.008    27.700     8.581
    13   6 C        2.772     0.265    22.522     7.773
    14   8 O        0.860    -0.507    23.933     6.559
    15   7 N        2.710    -0.199    25.324     7.474
    16   6 C        2.844     0.248    22.841     7.833
    17   7 N        2.670    -0.268    26.932     7.708
    18   7 N        1.851    -0.372    30.562     8.193
    19   6 C        3.108     0.125    25.122     8.212
    20   1 H        0.924     0.071     2.078     2.254
    21   1 H        0.925     0.038     2.470     2.458
    22   1 H        0.924     0.084     1.939     2.177
    23   1 H        0.924     0.061     2.189     2.314
    24   1 H        0.924     0.076     2.019     2.222
    25   1 H        0.925     0.076     2.019     2.222
    26   1 H        0.924     0.078     2.003     2.213
    27   1 H        0.926     0.061     2.183     2.311
    28   1 H        0.855     0.241     0.922     1.504
    29   1 H        0.860     0.233     0.952     1.529
    30   1 H        0.859     0.244     0.907     1.492
    31   1 H        0.805     0.335     0.623     1.240
    32  15 P        3.763     0.733   131.573    20.605
    33   8 O        1.614    -0.380    20.479     6.108
    34   8 O        0.808    -0.582    25.709     6.797
    35   8 O        1.657    -0.328    19.500     5.961
    36   6 C        3.898     0.057    19.568     6.288
    37   6 C        3.803     0.089    19.112     6.224
    38   8 O        1.701    -0.313    19.229     5.921
    39   6 C        3.936     0.109    18.735     6.151
    40   8 O        1.657    -0.344    19.786     6.005
    41   6 C        3.819    -0.091    22.226     6.709
    42   6 C        3.751     0.168    17.953     6.043
    43   7 N        2.736    -0.070    22.598     7.060
    44   6 C        2.700     0.325    21.470     7.584
    45   8 O        0.859    -0.483    23.405     6.486
    46   7 N        2.691    -0.192    25.168     7.451
    47   6 C        2.762     0.283    22.202     7.716
    48   8 O        0.859    -0.456    22.841     6.408
    49   6 C        2.949    -0.031    28.773     8.798
    50   6 C        3.755    -0.126    22.973     6.834
    51   6 C        2.845     0.019    27.570     8.605
    52   1 H        0.924     0.087     1.911     2.162
    53   1 H        0.925     0.083     1.948     2.183
    54   1 H        0.924     0.090     1.882     2.145
    55   1 H        0.924     0.073     2.057     2.243
    56   1 H        0.925     0.083     1.949     2.183
    57   1 H        0.925     0.071     2.078     2.254
    58   1 H        0.924     0.075     2.036     2.231
    59   1 H        0.855     0.237     0.936     1.515
    60   1 H        0.925     0.088     1.901     2.156
    61   1 H        0.925     0.072     2.064     2.247
    62   1 H        0.924     0.075     2.029     2.228
    63   1 H        0.926     0.103     1.755     2.072
    64  15 P        3.736     0.733   131.568    20.605
    65   8 O        1.614    -0.379    20.473     6.107
    66   8 O        0.808    -0.583    25.721     6.798
    67   8 O        1.657    -0.327    19.492     5.960
    68   6 C        3.899     0.057    19.563     6.287
    69   6 C        3.804     0.091    19.067     6.217
    70   8 O        1.702    -0.320    19.353     5.940
    71   6 C        3.918     0.109    18.739     6.152
    72   8 O        1.657    -0.343    19.780     6.004
    73   6 C        3.819    -0.091    22.217     6.708
    74   6 C        3.738     0.169    17.960     6.047
    75   7 N        2.822    -0.066    22.509     7.046
    76   6 C        3.143     0.093    25.709     8.296
    77   7 N        1.871    -0.295    28.506     7.914
    78   6 C        3.195    -0.013    27.793     8.595
    79   6 C        2.773     0.265    22.535     7.775
    80   8 O        0.860    -0.493    23.635     6.518
    81   7 N        2.710    -0.199    25.325     7.474
    82   6 C        2.839     0.251    22.795     7.824
    83   7 N        2.667    -0.276    27.129     7.736
    84   7 N        1.847    -0.367    30.418     8.174
    85   6 C        3.094     0.127    25.123     8.215
    86   1 H        0.924     0.087     1.908     2.160
    87   1 H        0.925     0.085     1.925     2.170
    88   1 H        0.924     0.086     1.915     2.164
    89   1 H        0.924     0.070     2.086     2.258
    90   1 H        0.924     0.073     2.051     2.239
    91   1 H        0.925     0.073     2.049     2.238
    92   1 H        0.924     0.072     2.060     2.245
    93   1 H        0.926     0.059     2.207     2.323
    94   1 H        0.854     0.235     0.943     1.522
    95   1 H        0.860     0.245     0.903     1.489
    96   1 H        0.858     0.246     0.898     1.484
    97  15 P        3.745     0.734   131.563    20.604
    98   8 O        1.614    -0.379    20.463     6.105
    99   8 O        0.808    -0.585    25.780     6.806
   100   8 O        1.657    -0.323    19.421     5.949
   101   6 C        3.917     0.054    19.610     6.294
   102   6 C        3.810     0.088    19.111     6.223
   103   8 O        1.702    -0.318    19.317     5.934
   104   6 C        3.920     0.107    18.765     6.157
   105   8 O        1.657    -0.349    19.883     6.019
   106   6 C        3.823    -0.093    22.260     6.714
   107   6 C        3.756     0.177    17.819     6.019
   108   7 N        2.737    -0.080    22.800     7.092
   109   6 C        2.754     0.336    21.284     7.555
   110   8 O        0.862    -0.518    24.174     6.592
   111   7 N        1.868    -0.353    30.022     8.122
   112   6 C        2.882     0.204    23.688     7.979
   113   7 N        2.673    -0.239    26.242     7.608
   114   6 C        2.912    -0.099    30.482     9.053
   115   6 C        2.860     0.039    27.125     8.537
   116   1 H        0.924     0.090     1.878     2.143
   117   1 H        0.924     0.088     1.897     2.154
   118   1 H        0.924     0.093     1.854     2.129
   119   1 H        0.925     0.075     2.031     2.229
   120   1 H        0.925     0.079     1.992     2.207
   121   1 H        0.925     0.074     2.041     2.234
   122   1 H        0.924     0.061     2.193     2.316
   123   1 H        0.860     0.228     0.972     1.544
   124   1 H        0.858     0.241     0.920     1.502
   125   1 H        0.926     0.088     1.894     2.152
   126   1 H        0.926     0.087     1.909     2.161
   127  15 P        3.684     0.748   131.056    20.564
   128   7 N        2.729    -0.198    25.296     7.470
   129   6 C        2.874     0.245    22.905     7.846
   130   7 N        2.679    -0.256    26.636     7.665
   131   7 N        1.846    -0.341    29.709     8.078
   132   6 C        3.142     0.120    25.140     8.204
   133   6 C        3.207    -0.008    27.603     8.556
   134   6 C        2.780     0.268    22.469     7.764
   135   8 O        0.862    -0.522    24.269     6.605
   136   7 N        1.877    -0.315    29.010     7.984
   137   6 C        3.203     0.128    24.678     8.093
   138   7 N        2.852    -0.072    22.629     7.065
   139   6 C        3.763     0.150    18.216     6.084
   140   6 C        3.828    -0.099    22.365     6.729
   141   8 O        1.614    -0.386    20.598     6.126
   142   6 C        3.963     0.113    18.661     6.138
   143   8 O        1.658    -0.324    19.438     5.952
   144   6 C        3.820     0.074    19.337     6.258
   145   8 O        1.704    -0.291    18.840     5.860
   146   6 C        3.913     0.099    18.902     6.179
   147   8 O        1.656    -0.339    19.700     5.992
   148   8 O        0.808    -0.573    25.499     6.769
   149   1 H        0.855     0.229     0.971     1.544
   150   1 H        0.925     0.129     1.543     1.943
   151   1 H        0.925     0.109     1.704     2.041
   152   1 H        0.925     0.072     2.062     2.246
   153   1 H        0.859     0.234     0.947     1.524
   154   1 H        0.860     0.266     0.824     1.422
   155   1 H        0.925     0.042     2.420     2.432
   156   1 H        0.925     0.110     1.698     2.038
   157   1 H        0.925     0.077     2.009     2.217
   158  15 P        3.746     0.745   131.189    20.575
   159   8 O        1.614    -0.380    20.484     6.109
   160   8 O        0.808    -0.600    26.154     6.855
   161   8 O        1.657    -0.329    19.522     5.965
   162   6 C        3.870     0.050    19.697     6.311
   163   6 C        3.782     0.081    19.246     6.249
   164   8 O        1.699    -0.303    19.044     5.892
   165   6 C        3.918     0.108    18.751     6.154
   166   8 O        1.657    -0.338    19.677     5.988
   167   6 C        3.822    -0.094    22.271     6.716
   168   6 C        3.718     0.160    18.132     6.083
   169   7 N        2.736    -0.071    22.616     7.063
   170   6 C        2.700     0.320    21.561     7.600
   171   8 O        0.859    -0.457    22.863     6.411
   172   7 N        2.691    -0.191    25.135     7.446
   173   6 C        2.761     0.280    22.270     7.728
   174   8 O        0.859    -0.464    22.997     6.430
   175   6 C        2.949    -0.036    28.906     8.818
   176   6 C        3.755    -0.119    22.839     6.814
   177   6 C        2.845     0.016    27.646     8.617
   178   1 H        0.925     0.089     1.892     2.151
   179   1 H        0.924     0.088     1.900     2.155
   180   1 H        0.924     0.111     1.687     2.031
   181   1 H        0.924     0.072     2.064     2.247
   182   1 H        0.925     0.081     1.973     2.196
   183   1 H        0.925     0.076     2.017     2.221
   184   1 H        0.925     0.094     1.838     2.120
   185   1 H        0.855     0.239     0.927     1.509
   186   1 H        0.925     0.084     1.941     2.179
   187   1 H        0.925     0.061     2.183     2.311
   188   1 H        0.925     0.066     2.132     2.283
   189   1 H        0.926     0.108     1.711     2.045
   190  15 P        3.720     0.741   131.319    20.585
   191   8 O        1.614    -0.375    20.391     6.095
   192   8 O        0.808    -0.565    25.293     6.742
   193   8 O        1.657    -0.347    19.848     6.014
   194   6 C        3.894     0.051    19.669     6.305
   195   6 C        3.796     0.088    19.124     6.227
   196   8 O        1.702    -0.313    19.228     5.920
   197   6 C        3.916     0.108    18.761     6.156
   198   8 O        1.657    -0.338    19.678     5.988
   199   6 C        3.822    -0.093    22.256     6.714
   200   6 C        3.729     0.164    18.053     6.066
   201   7 N        2.818    -0.056    22.321     7.017
   202   6 C        3.152     0.095    25.626     8.279
   203   7 N        1.872    -0.301    28.641     7.933
   204   6 C        3.195    -0.009    27.717     8.584
   205   6 C        2.771     0.264    22.545     7.776
   206   8 O        0.860    -0.506    23.921     6.558
   207   7 N        2.709    -0.205    25.460     7.494
   208   6 C        2.840     0.245    22.911     7.844
   209   7 N        2.667    -0.274    27.078     7.728
   210   7 N        1.848    -0.352    29.999     8.118
   211   6 C        3.102     0.123    25.182     8.223
   212   1 H        0.924     0.093     1.854     2.130
   213   1 H        0.925     0.080     1.978     2.200
   214   1 H        0.924     0.098     1.804     2.100
   215   1 H        0.924     0.073     2.052     2.240
   216   1 H        0.924     0.077     2.008     2.216
   217   1 H        0.925     0.079     1.989     2.205
   218   1 H        0.924     0.081     1.970     2.195
   219   1 H        0.926     0.062     2.176     2.307
   220   1 H        0.853     0.229     0.969     1.542
   221   1 H        0.860     0.242     0.914     1.497
   222   1 H        0.858     0.239     0.928     1.509
   223  15 P        3.723     0.745   131.173    20.574
   224   8 O        1.614    -0.375    20.392     6.095
   225   8 O        0.808    -0.569    25.390     6.755
   226   8 O        1.657    -0.343    19.773     6.003
   227   6 C        3.897     0.050    19.690     6.308
   228   6 C        3.793     0.086    19.163     6.234
   229   8 O        1.702    -0.307    19.109     5.902
   230   6 C        3.900     0.106    18.783     6.161
   231   8 O        1.656    -0.338    19.688     5.990
   232   6 C        3.822    -0.101    22.403     6.736
   233   6 C        3.728     0.160    18.104     6.074
   234   7 N        2.737    -0.070    22.598     7.060
   235   6 C        2.700     0.320    21.558     7.599
   236   8 O        0.859    -0.471    23.155     6.452
   237   7 N        2.689    -0.205    25.448     7.492
   238   6 C        2.761     0.276    22.337     7.740
   239   8 O        0.859    -0.464    22.994     6.429
   240   6 C        2.950    -0.040    29.002     8.833
   241   6 C        3.755    -0.125    22.959     6.832
   242   6 C        2.846     0.017    27.616     8.613
   243   1 H        0.924     0.097     1.816     2.107
   244   1 H        0.924     0.078     1.996     2.209
   245   1 H        0.924     0.099     1.796     2.096
   246   1 H        0.924     0.078     1.998     2.210
   247   1 H        0.924     0.086     1.916     2.165
   248   1 H        0.925     0.085     1.926     2.171
   249   1 H        0.925     0.084     1.939     2.178
   250   1 H        0.853     0.236     0.940     1.519
   251   1 H        0.924     0.090     1.879     2.144
   252   1 H        0.925     0.064     2.148     2.292
   253   1 H        0.925     0.074     2.040     2.233
   254   1 H        0.926     0.113     1.670     2.021
   255  15 P        3.680     0.744   131.208    20.576
   256   8 O        1.614    -0.372    20.340     6.087
   257   8 O        0.808    -0.565    25.296     6.742
   258   8 O        1.656    -0.345    19.808     6.008
   259   6 C        3.867     0.050    19.692     6.310
   260   6 C        3.798     0.090    19.097     6.222
   261   8 O        1.702    -0.306    19.104     5.901
   262   6 C        3.913     0.106    18.794     6.162
   263   8 O        1.656    -0.335    19.641     5.983
   264   6 C        3.818    -0.101    22.402     6.736
   265   6 C        3.737     0.168    17.975     6.050
   266   7 N        2.738    -0.070    22.599     7.060
   267   6 C        2.700     0.326    21.467     7.583
   268   8 O        0.859    -0.487    23.505     6.500
   269   7 N        2.688    -0.202    25.394     7.484
   270   6 C        2.761     0.274    22.369     7.745
   271   8 O        0.859    -0.452    22.754     6.395
   272   6 C        2.950    -0.044    29.102     8.848
   273   6 C        3.755    -0.132    23.099     6.853
   274   6 C        2.847     0.013    27.708     8.627
   275   1 H        0.924     0.095     1.836     2.119
   276   1 H        0.924     0.083     1.950     2.184
   277   1 H        0.924     0.088     1.894     2.152
   278   1 H        0.925     0.079     1.992     2.207
   279   1 H        0.924     0.082     1.962     2.191
   280   1 H        0.925     0.082     1.956     2.187
   281   1 H        0.925     0.073     2.055     2.242
   282   1 H        0.852     0.236     0.939     1.519
   283   1 H        0.924     0.081     1.968     2.194
   284   1 H        0.924     0.094     1.838     2.120
   285   1 H        0.925     0.075     2.034     2.230
   286   1 H        0.926     0.116     1.650     2.009
   287  15 P        3.704     0.746   131.141    20.571
   288   8 O        1.614    -0.372    20.330     6.086
   289   8 O        0.808    -0.567    25.354     6.750
   290   8 O        1.656    -0.347    19.855     6.015
   291   6 C        3.876     0.052    19.657     6.304
   292   6 C        3.798     0.091    19.072     6.218
   293   8 O        1.702    -0.313    19.216     5.919
   294   6 C        3.904     0.107    18.776     6.159
   295   8 O        1.656    -0.336    19.644     5.983
   296   6 C        3.819    -0.093    22.261     6.715
   297   6 C        3.735     0.171    17.933     6.043
   298   7 N        2.738    -0.074    22.679     7.073
   299   6 C        2.700     0.327    21.437     7.578
   300   8 O        0.859    -0.492    23.616     6.515
   301   7 N        2.689    -0.192    25.159     7.450
   302   6 C        2.761     0.277    22.311     7.735
   303   8 O        0.859    -0.449    22.680     6.385
   304   6 C        2.950    -0.039    28.970     8.828
   305   6 C        3.755    -0.132    23.095     6.852
   306   6 C        2.846     0.015    27.662     8.620
   307   1 H        0.924     0.094     1.839     2.120
   308   1 H        0.924     0.082     1.960     2.189
   309   1 H        0.924     0.089     1.887     2.148
   310   1 H        0.924     0.077     2.007     2.216
   311   1 H        0.924     0.079     1.991     2.207
   312   1 H        0.925     0.074     2.037     2.232
   313   1 H        0.924     0.070     2.088     2.260
   314   1 H        0.854     0.236     0.939     1.519
   315   1 H        0.925     0.075     2.027     2.226
   316   1 H        0.924     0.075     2.030     2.228
   317   1 H        0.925     0.097     1.810     2.104
   318   1 H        0.926     0.108     1.713     2.047
   319  15 P        3.707     0.746   131.150    20.572
   320   8 O        1.614    -0.372    20.336     6.086
   321   8 O        0.808    -0.568    25.380     6.753
   322   8 O        1.657    -0.350    19.914     6.024
   323   6 C        3.886     0.053    19.639     6.300
   324   6 C        3.793     0.090    19.094     6.223
   325   8 O        1.702    -0.320    19.350     5.939
   326   6 C        3.893     0.109    18.742     6.154
   327   8 O        1.656    -0.342    19.760     6.001
   328   6 C        3.828    -0.087    22.146     6.696
   329   6 C        3.716     0.169    17.994     6.060
   330   7 N        2.813    -0.062    22.439     7.035
   331   6 C        3.145     0.094    25.664     8.289
   332   7 N        1.870    -0.296    28.521     7.916
   333   6 C        3.189    -0.007    27.709     8.587
   334   6 C        2.771     0.262    22.582     7.783
   335   8 O        0.860    -0.493    23.624     6.517
   336   7 N        2.710    -0.201    25.364     7.480
   337   6 C        2.834     0.247    22.868     7.837
   338   7 N        2.666    -0.274    27.079     7.729
   339   7 N        1.846    -0.357    30.140     8.136
   340   6 C        3.089     0.126    25.136     8.218
   341   1 H        0.924     0.091     1.866     2.136
   342   1 H        0.925     0.077     2.008     2.216
   343   1 H        0.924     0.096     1.822     2.111
   344   1 H        0.925     0.074     2.046     2.237
   345   1 H        0.924     0.076     2.023     2.224
   346   1 H        0.925     0.074     2.044     2.236
   347   1 H        0.924     0.073     2.049     2.238
   348   1 H        0.926     0.057     2.230     2.335
   349   1 H        0.853     0.235     0.945     1.523
   350   1 H        0.860     0.241     0.918     1.501
   351   1 H        0.858     0.240     0.922     1.504
   352  15 P        3.712     0.749   131.030    20.562
   353   8 O        1.614    -0.376    20.408     6.097
   354   8 O        0.808    -0.567    25.358     6.750
   355   8 O        1.657    -0.350    19.905     6.023
   356   6 C        3.906     0.057    19.570     6.288
   357   6 C        3.797     0.086    19.162     6.233
   358   8 O        1.703    -0.320    19.340     5.938
   359   6 C        3.746     0.103    18.946     6.209
   360   8 O        1.655    -0.483    22.524     6.407
   361   6 C        3.820    -0.087    22.150     6.698
   362   6 C        3.743     0.169    17.951     6.044
   363   7 N        2.739    -0.075    22.697     7.076
   364   6 C        2.702     0.323    21.502     7.590
   365   8 O        0.859    -0.489    23.534     6.504
   366   7 N        2.690    -0.203    25.419     7.488
   367   6 C        2.762     0.276    22.334     7.739
   368   8 O        0.859    -0.465    23.014     6.432
   369   6 C        2.950    -0.042    29.035     8.838
   370   6 C        3.755    -0.123    22.909     6.825
   371   6 C        2.847     0.021    27.527     8.599
   372   1 H        0.924     0.080     1.984     2.202
   373   1 H        0.925     0.070     2.082     2.256
   374   1 H        0.924     0.080     1.980     2.200
   375   1 H        0.925     0.056     2.252     2.347
   376   1 H        0.805     0.353     0.580     1.197
   377   1 H        0.924     0.070     2.083     2.257
   378   1 H        0.924     0.086     1.916     2.165
   379   1 H        0.925     0.076     2.025     2.225
   380   1 H        0.853     0.252     0.878     1.468
   381   1 H        0.925     0.061     2.182     2.310
   382   1 H        0.924     0.087     1.904     2.158
   383   1 H        0.925     0.068     2.111     2.272
   384   1 H        0.926     0.095     1.832     2.116
   385   8 O        1.655    -0.468    22.218     6.363
   386   6 C        3.675     0.061    19.780     6.373
   387   6 C        3.787     0.086    19.161     6.235
   388   8 O        1.701    -0.325    19.442     5.953
   389   6 C        3.964     0.111    18.698     6.144
   390   8 O        1.658    -0.347    19.856     6.015
   391   6 C        3.819    -0.090    22.209     6.707
   392   6 C        3.732     0.172    17.935     6.045
   393   7 N        2.835    -0.069    22.568     7.056
   394   6 C        3.164     0.101    25.444     8.244
   395   7 N        1.867    -0.282    28.166     7.867
   396   6 C        3.232     0.008    27.008     8.436
   397   6 C        2.906     0.179    24.168     8.061
   398   7 N        2.664    -0.248    26.460     7.640
   399   7 N        1.863    -0.311    28.923     7.971
   400   6 C        2.926     0.147    24.808     8.168
   401   7 N        1.827    -0.335    29.543     8.054
   402   6 C        3.137     0.136    24.826     8.155
   403   1 H        0.925     0.070     2.084     2.257
   404   1 H        0.924     0.048     2.350     2.397
   405   1 H        0.924     0.074     2.045     2.236
   406   1 H        0.924     0.057     2.229     2.335
   407   1 H        0.924     0.079     1.992     2.207
   408   1 H        0.925     0.069     2.094     2.263
   409   1 H        0.924     0.065     2.139     2.287
   410   1 H        0.926     0.074     2.044     2.236
   411   1 H        0.860     0.233     0.952     1.528
   412   1 H        0.858     0.236     0.941     1.520
   413   1 H        0.926     0.041     2.437     2.441
   414   1 H        0.805     0.343     0.604     1.220
   415  15 P        3.759     0.737   131.435    20.594
   416   8 O        1.614    -0.372    20.342     6.087
   417   8 O        0.808    -0.561    25.210     6.730
   418   8 O        1.657    -0.341    19.746     5.999
   419   6 C        3.893     0.056    19.589     6.292
   420   6 C        3.796     0.093    19.054     6.216
   421   8 O        1.701    -0.317    19.295     5.931
   422   6 C        3.927     0.110    18.723     6.149
   423   8 O        1.657    -0.340    19.727     5.996
   424   6 C        3.818    -0.090    22.195     6.705
   425   6 C        3.737     0.175    17.878     6.034
   426   7 N        2.737    -0.085    22.896     7.107
   427   6 C        2.754     0.334    21.319     7.561
   428   8 O        0.862    -0.525    24.336     6.614
   429   7 N        1.871    -0.357    30.133     8.137
   430   6 C        2.883     0.198    23.791     7.996
   431   7 N        2.675    -0.245    26.386     7.629
   432   6 C        2.911    -0.100    30.518     9.059
   433   6 C        2.861     0.043    27.027     8.521
   434   1 H        0.924     0.091     1.868     2.137
   435   1 H        0.924     0.073     2.050     2.239
   436   1 H        0.924     0.089     1.891     2.150
   437   1 H        0.924     0.069     2.099     2.266
   438   1 H        0.925     0.077     2.008     2.216
   439   1 H        0.925     0.070     2.086     2.258
   440   1 H        0.924     0.069     2.098     2.265
   441   1 H        0.860     0.235     0.942     1.520
   442   1 H        0.857     0.245     0.902     1.488
   443   1 H        0.926     0.095     1.835     2.118
   444   1 H        0.926     0.084     1.937     2.177
   445  15 P        3.735     0.746   131.134    20.571
   446   8 O        1.614    -0.373    20.365     6.091
   447   8 O        0.808    -0.568    25.375     6.752
   448   8 O        1.657    -0.347    19.849     6.014
   449   6 C        3.900     0.054    19.613     6.295
   450   6 C        3.801     0.092    19.061     6.216
   451   8 O        1.701    -0.318    19.316     5.934
   452   6 C        3.906     0.110    18.728     6.151
   453   8 O        1.657    -0.333    19.590     5.975
   454   6 C        3.818    -0.089    22.184     6.703
[...]
                           512 O    0.936
   514   6 C    3.944 --   513 C    0.987   516 C    0.968   515 O    0.965
                           532 H    0.948
   515   8 O    2.071 --   519 C    0.972   514 C    0.965
   516   6 C    3.931 --   518 C    0.994   514 C    0.968   533 H    0.962
                           517 O    0.938
   517   8 O    2.254 --   541 P    1.099   516 C    0.938
   518   6 C    3.989 --   516 C    0.994   519 C    0.982   534 H    0.968
                           535 H    0.964
   519   6 C    3.935 --   518 C    0.982   515 O    0.972   520 N    0.958
                           536 H    0.954
   520   7 N    3.591 --   521 C    1.209   529 C    1.153   519 C    0.958
                           522 N    0.115
   521   6 C    3.954 --   522 N    1.607   520 N    1.209   537 H    0.956
   522   7 N    3.002 --   521 C    1.607   523 C    1.176   520 N    0.115
   523   6 C    3.969 --   529 C    1.343   524 C    1.183   522 N    1.176
   524   6 C    3.970 --   525 N    1.346   526 N    1.303   523 C    1.183
   525   7 N    3.435 --   524 C    1.346   538 H    0.933   539 H    0.873
   526   7 N    3.090 --   527 C    1.401   524 C    1.303
   527   6 C    3.966 --   528 N    1.469   526 N    1.401   540 H    0.953
   528   7 N    3.009 --   527 C    1.469   529 C    1.257
   529   6 C    3.960 --   523 C    1.343   528 N    1.257   520 N    1.153
   530   1 H    0.992 --   513 C    0.965
   531   1 H    0.992 --   513 C    0.966
   532   1 H    0.990 --   514 C    0.948
   533   1 H    0.994 --   516 C    0.962
   534   1 H    0.994 --   518 C    0.968
   535   1 H    0.995 --   518 C    0.964
   536   1 H    0.995 --   519 C    0.954
   537   1 H    0.995 --   521 C    0.956
   538   1 H    0.952 --   525 N    0.933
   539   1 H    0.940 --   525 N    0.873
   540   1 H    0.998 --   527 C    0.953
   541  15 P    5.456 --   543 O    1.764   542 O    1.387   544 O    1.144
                           517 O    1.099
   542   8 O    2.298 --   541 P    1.387   776 H    0.747
   543   8 O    1.974 --   541 P    1.764
   544   8 O    2.269 --   541 P    1.144   545 C    0.937
   545   6 C    3.922 --   546 C    0.988   561 H    0.966   560 H    0.965
                           544 O    0.937
   546   6 C    3.944 --   545 C    0.988   548 C    0.966   547 O    0.965
                           562 H    0.949
   547   8 O    2.068 --   551 C    0.973   546 C    0.965
   548   6 C    3.931 --   550 C    0.992   546 C    0.966   563 H    0.962
                           549 O    0.942
   549   8 O    2.255 --   571 P    1.099   548 C    0.942
   550   6 C    3.989 --   548 C    0.992   551 C    0.980   564 H    0.970
                           565 H    0.968
   551   6 C    3.933 --   550 C    0.980   547 O    0.973   552 N    0.956
                           566 H    0.954
   552   7 N    3.575 --   559 C    1.212   553 C    1.071   551 C    0.956
                           554 O    0.111
   553   6 C    3.953 --   554 O    1.548   555 N    1.241   552 N    1.071
   554   8 O    1.944 --   553 C    1.548   555 N    0.120   552 N    0.111
   555   7 N    3.073 --   556 C    1.350   553 C    1.241   554 O    0.120
                           557 N    0.112
   556   6 C    3.967 --   557 N    1.380   555 N    1.350   558 C    1.147
   557   7 N    3.454 --   556 C    1.380   567 H    0.925   568 H    0.867
                           555 N    0.112
   558   6 C    3.976 --   559 C    1.650   556 C    1.147   569 H    0.961
   559   6 C    3.961 --   558 C    1.650   552 N    1.212   570 H    0.953
   560   1 H    0.992 --   545 C    0.965
   561   1 H    0.991 --   545 C    0.966
   562   1 H    0.991 --   546 C    0.949
   563   1 H    0.995 --   548 C    0.962
   564   1 H    0.995 --   550 C    0.970
   565   1 H    0.995 --   550 C    0.968
   566   1 H    0.995 --   551 C    0.954
   567   1 H    0.946 --   557 N    0.925
   568   1 H    0.940 --   557 N    0.867
   569   1 H    0.992 --   558 C    0.961
   570   1 H    0.992 --   559 C    0.953
   571  15 P    5.449 --   573 O    1.758   572 O    1.386   574 O    1.148
                           549 O    1.099
   572   8 O    2.296 --   571 P    1.386   777 H    0.747
   573   8 O    1.968 --   571 P    1.758
   574   8 O    2.271 --   571 P    1.148   575 C    0.934
   575   6 C    3.919 --   576 C    0.988   593 H    0.966   592 H    0.965
                           574 O    0.934
   576   6 C    3.944 --   575 C    0.988   578 C    0.967   577 O    0.965
                           594 H    0.949
   577   8 O    2.067 --   581 C    0.971   576 C    0.965
   578   6 C    3.931 --   580 C    0.992   576 C    0.967   595 H    0.961
                           579 O    0.941
   579   8 O    2.257 --   603 P    1.101   578 C    0.941
   580   6 C    3.988 --   578 C    0.992   581 C    0.982   596 H    0.970
                           597 H    0.964
   581   6 C    3.932 --   580 C    0.982   577 O    0.971   582 N    0.958
                           598 H    0.952
   582   7 N    3.594 --   583 C    1.215   591 C    1.151   581 C    0.958
                           584 N    0.114
   583   6 C    3.958 --   584 N    1.609   582 N    1.215   599 H    0.958
   584   7 N    3.003 --   583 C    1.609   585 C    1.176   582 N    0.114
   585   6 C    3.969 --   591 C    1.344   586 C    1.183   584 N    1.176
   586   6 C    3.969 --   587 N    1.344   588 N    1.304   585 C    1.183
   587   7 N    3.436 --   586 C    1.344   600 H    0.936   601 H    0.869
   588   7 N    3.062 --   589 C    1.403   586 C    1.304
   589   6 C    3.967 --   590 N    1.467   588 N    1.403   602 H    0.956
   590   7 N    3.005 --   589 C    1.467   591 C    1.254
   591   6 C    3.959 --   585 C    1.344   590 N    1.254   582 N    1.151
   592   1 H    0.992 --   575 C    0.965
   593   1 H    0.991 --   575 C    0.966
   594   1 H    0.990 --   576 C    0.949
   595   1 H    0.994 --   578 C    0.961
   596   1 H    0.995 --   580 C    0.970
   597   1 H    0.993 --   580 C    0.964
   598   1 H    0.993 --   581 C    0.952
   599   1 H    0.996 --   583 C    0.958
   600   1 H    0.956 --   587 N    0.936
   601   1 H    0.941 --   587 N    0.869
   602   1 H    0.996 --   589 C    0.956
   603  15 P    5.451 --   605 O    1.759   604 O    1.386   606 O    1.145
                           579 O    1.101
   604   8 O    2.298 --   603 P    1.386   778 H    0.749
   605   8 O    1.969 --   603 P    1.759
   606   8 O    2.274 --   603 P    1.145   607 C    0.939
   607   6 C    3.921 --   608 C    0.990   624 H    0.964   623 H    0.963
                           606 O    0.939
   608   6 C    3.941 --   607 C    0.990   610 C    0.967   609 O    0.962
                           625 H    0.950
   609   8 O    2.075 --   613 C    0.982   608 C    0.962
   610   6 C    3.929 --   612 C    0.988   608 C    0.967   626 H    0.962
                           611 O    0.944
   611   8 O    2.265 --   635 P    1.108   610 C    0.944
   612   6 C    3.985 --   610 C    0.988   613 C    0.975   627 H    0.972
                           628 H    0.969
   613   6 C    3.929 --   609 O    0.982   612 C    0.975   629 H    0.954
                           614 N    0.948
   614   7 N    3.572 --   622 C    1.151   615 C    1.141   613 C    0.948
                           616 O    0.127
   615   6 C    3.959 --   616 O    1.551   617 N    1.170   614 N    1.141
   616   8 O    1.965 --   615 C    1.551   617 N    0.128   614 N    0.127
   617   7 N    3.524 --   615 C    1.170   618 C    1.112   630 H    0.902
                           619 O    0.135   616 O    0.128
   618   6 C    3.937 --   619 O    1.664   617 N    1.112   620 C    1.073
   619   8 O    1.987 --   618 C    1.664   617 N    0.135
   620   6 C    3.980 --   622 C    1.662   618 C    1.073   621 C    1.023
   621   6 C    3.980 --   620 C    1.023   631 H    0.981   633 H    0.966
                           632 H    0.963
   622   6 C    3.949 --   620 C    1.662   614 N    1.151   634 H    0.948
   623   1 H    0.992 --   607 C    0.963
   624   1 H    0.990 --   607 C    0.964
   625   1 H    0.991 --   608 C    0.950
   626   1 H    0.995 --   610 C    0.962
   627   1 H    0.994 --   612 C    0.972
   628   1 H    0.993 --   612 C    0.969
   629   1 H    0.993 --   613 C    0.954
   630   1 H    0.948 --   617 N    0.902
   631   1 H    0.993 --   621 C    0.981
   632   1 H    0.990 --   621 C    0.963
   633   1 H    0.992 --   621 C    0.966
   634   1 H    0.987 --   622 C    0.948
   635  15 P    5.447 --   637 O    1.756   636 O    1.381   638 O    1.139
                           611 O    1.108
   636   8 O    2.297 --   635 P    1.381   779 H    0.751
   637   8 O    1.964 --   635 P    1.756
   638   8 O    2.265 --   635 P    1.139   639 C    0.933
   639   6 C    3.919 --   640 C    0.983   658 H    0.967   657 H    0.964
                           638 O    0.933
   640   6 C    3.947 --   639 C    0.983   642 C    0.971   641 O    0.969
                           659 H    0.947
   641   8 O    2.083 --   645 C    0.976   640 C    0.969
   642   6 C    3.931 --   644 C    0.994   640 C    0.971   660 H    0.960
                           643 O    0.937
   643   8 O    2.261 --   668 P    1.107   642 C    0.937
   644   6 C    3.988 --   642 C    0.994   645 C    0.984   661 H    0.966
                           662 H    0.963
   645   6 C    3.933 --   644 C    0.984   641 O    0.976   663 H    0.953
                           646 N    0.952
   646   7 N    3.593 --   647 C    1.197   656 C    1.170   645 C    0.952
                           648 N    0.109
   647   6 C    3.945 --   648 N    1.611   646 N    1.197   664 H    0.954
   648   7 N    3.009 --   647 C    1.611   649 C    1.188   646 N    0.109
   649   6 C    3.960 --   656 C    1.353   648 N    1.188   650 C    1.128
   650   6 C    3.945 --   651 O    1.562   652 N    1.139   649 C    1.128
   651   8 O    1.960 --   650 C    1.562   652 N    0.133
   652   7 N    3.515 --   653 C    1.180   650 C    1.139   665 H    0.831
                           651 O    0.133
   653   6 C    3.965 --   655 N    1.360   654 N    1.332   652 N    1.180
   654   7 N    3.392 --   653 C    1.332   666 H    0.922   667 H    0.864
                           655 N    0.106
   655   7 N    2.957 --   653 C    1.360   656 C    1.231   654 N    0.106
   656   6 C    3.961 --   649 C    1.353   655 N    1.231   646 N    1.170
   657   1 H    0.992 --   639 C    0.964
   658   1 H    0.993 --   639 C    0.967
   659   1 H    0.987 --   640 C    0.947
   660   1 H    0.995 --   642 C    0.960
   661   1 H    0.993 --   644 C    0.966
   662   1 H    0.994 --   644 C    0.963
   663   1 H    0.992 --   645 C    0.953
   664   1 H    0.994 --   647 C    0.954
   665   1 H    0.947 --   652 N    0.831
   666   1 H    0.942 --   654 N    0.922
   667   1 H    0.943 --   654 N    0.864
   668  15 P    5.459 --   670 O    1.795   669 O    1.383   671 O    1.110
                           643 O    1.107
   669   8 O    2.302 --   668 P    1.383   780 H    0.758
   670   8 O    1.995 --   668 P    1.795
   671   8 O    2.247 --   668 P    1.110   672 C    0.938
   672   6 C    3.923 --   673 C    0.988   687 H    0.961   688 H    0.960
                           671 O    0.938
   673   6 C    3.946 --   672 C    0.988   674 O    0.968   675 C    0.967
                           689 H    0.948
   674   8 O    2.070 --   678 C    0.973   673 C    0.968
   675   6 C    3.927 --   677 C    0.992   673 C    0.967   690 H    0.961
                           676 O    0.936
   676   8 O    2.264 --   698 P    1.114   675 C    0.936
   677   6 C    3.989 --   675 C    0.992   678 C    0.981   691 H    0.969
                           692 H    0.967
   678   6 C    3.934 --   677 C    0.981   674 O    0.973   679 N    0.957
                           693 H    0.954
   679   7 N    3.577 --   686 C    1.209   680 C    1.074   678 C    0.957
                           681 O    0.112
   680   6 C    3.953 --   681 O    1.544   682 N    1.241   679 N    1.074
   681   8 O    1.940 --   680 C    1.544   682 N    0.119   679 N    0.112
   682   7 N    3.076 --   683 C    1.350   680 C    1.241   681 O    0.119
                           684 N    0.111
   683   6 C    3.966 --   684 N    1.378   682 N    1.350   685 C    1.147
   684   7 N    3.453 --   683 C    1.378   694 H    0.926   695 H    0.862
                           682 N    0.111
   685   6 C    3.977 --   686 C    1.653   683 C    1.147   696 H    0.960
   686   6 C    3.960 --   685 C    1.653   679 N    1.209   697 H    0.952
   687   1 H    0.990 --   672 C    0.961
   688   1 H    0.993 --   672 C    0.960
   689   1 H    0.990 --   673 C    0.948
   690   1 H    0.994 --   675 C    0.961
   691   1 H    0.994 --   677 C    0.969
   692   1 H    0.995 --   677 C    0.967
   693   1 H    0.994 --   678 C    0.954
   694   1 H    0.948 --   684 N    0.926
   695   1 H    0.940 --   684 N    0.862
   696   1 H    0.992 --   685 C    0.960
   697   1 H    0.991 --   686 C    0.952
   698  15 P    5.456 --   700 O    1.790   699 O    1.377   676 O    1.114
                           701 O    1.110
   699   8 O    2.298 --   698 P    1.377   781 H    0.758
   700   8 O    1.992 --   698 P    1.790
   701   8 O    2.248 --   698 P    1.110   702 C    0.941
   702   6 C    3.926 --   703 C    0.988   719 H    0.962   720 H    0.959
                           701 O    0.941
   703   6 C    3.946 --   702 C    0.988   704 O    0.968   705 C    0.965
                           721 H    0.949
   704   8 O    2.074 --   708 C    0.975   703 C    0.968
   705   6 C    3.928 --   707 C    0.991   703 C    0.965   722 H    0.962
                           706 O    0.936
   706   8 O    2.258 --   730 P    1.108   705 C    0.936
   707   6 C    3.988 --   705 C    0.991   708 C    0.978   723 H    0.972
                           724 H    0.964
   708   6 C    3.935 --   707 C    0.978   704 O    0.975   709 N    0.961
                           725 H    0.954
   709   7 N    3.593 --   710 C    1.211   718 C    1.152   708 C    0.961
                           711 N    0.114
   710   6 C    3.955 --   711 N    1.606   709 N    1.211   726 H    0.957
   711   7 N    3.002 --   710 C    1.606   712 C    1.177   709 N    0.114
   712   6 C    3.970 --   718 C    1.346   713 C    1.179   711 N    1.177
   713   6 C    3.969 --   714 N    1.356   715 N    1.297   712 C    1.179
   714   7 N    3.447 --   713 C    1.356   727 H    0.932   728 H    0.871
   715   7 N    3.082 --   716 C    1.407   713 C    1.297
   716   6 C    3.971 --   717 N    1.465   715 N    1.407   729 H    0.958
   717   7 N    3.003 --   716 C    1.465   718 C    1.252
   718   6 C    3.959 --   712 C    1.346   717 N    1.252   709 N    1.152
   719   1 H    0.991 --   702 C    0.962
   720   1 H    0.994 --   702 C    0.959
   721   1 H    0.991 --   703 C    0.949
   722   1 H    0.995 --   705 C    0.962
   723   1 H    0.995 --   707 C    0.972
   724   1 H    0.993 --   707 C    0.964
   725   1 H    0.995 --   708 C    0.954
   726   1 H    0.995 --   710 C    0.957
   727   1 H    0.952 --   714 N    0.932
   728   1 H    0.941 --   714 N    0.871
   729   1 H    0.998 --   716 C    0.958
   730  15 P    5.448 --   732 O    1.786   731 O    1.376   733 O    1.113
                           706 O    1.108
   731   8 O    2.294 --   730 P    1.376   782 H    0.756
   732   8 O    1.990 --   730 P    1.786
   733   8 O    2.251 --   730 P    1.113   734 C    0.939
   734   6 C    3.925 --   735 C    0.988   749 H    0.963   750 H    0.960
                           733 O    0.939
   735   6 C    3.941 --   734 C    0.988   736 O    0.963   737 C    0.960
                           751 H    0.953
   736   8 O    2.070 --   740 C    0.977   735 C    0.963
   737   6 C    3.962 --   738 O    1.000   739 C    0.992   752 H    0.962
                           735 C    0.960
   738   8 O    1.932 --   737 C    1.000   753 H    0.865
   739   6 C    3.986 --   737 C    0.992   754 H    0.976   740 C    0.973
                           755 H    0.972
   740   6 C    3.930 --   736 O    0.977   739 C    0.973   756 H    0.956
                           741 N    0.952
   741   7 N    3.579 --   748 C    1.214   742 C    1.077   740 C    0.952
                           743 O    0.110
   742   6 C    3.953 --   743 O    1.532   744 N    1.249   741 N    1.077
   743   8 O    1.922 --   742 C    1.532   744 N    0.120   741 N    0.110
   744   7 N    3.076 --   745 C    1.344   742 C    1.249   743 O    0.120
                           746 N    0.111
   745   6 C    3.967 --   746 N    1.385   744 N    1.344   747 C    1.148
   746   7 N    3.460 --   745 C    1.385   757 H    0.926   758 H    0.870
                           744 N    0.111
   747   6 C    3.976 --   748 C    1.647   745 C    1.148   759 H    0.962
   748   6 C    3.960 --   747 C    1.647   741 N    1.214   760 H    0.954
   749   1 H    0.993 --   734 C    0.963
   750   1 H    0.994 --   734 C    0.960
   751   1 H    0.994 --   735 C    0.953
   752   1 H    0.998 --   737 C    0.962
   753   1 H    0.878 --   738 O    0.865
   754   1 H    0.996 --   739 C    0.976
   755   1 H    0.992 --   739 C    0.972
   756   1 H    0.995 --   740 C    0.956
   757   1 H    0.947 --   746 N    0.926
   758   1 H    0.937 --   746 N    0.870
   759   1 H    0.993 --   747 C    0.962
   760   1 H    0.992 --   748 C    0.954
   761   1 H    0.785 --    33 O    0.751
   762   1 H    0.783 --    65 O    0.748
   763   1 H    0.784 --    98 O    0.749
   764   1 H    0.776 --   141 O    0.741
   765   1 H    0.787 --   159 O    0.753
   766   1 H    0.800 --   191 O    0.756
   767   1 H    0.803 --   224 O    0.757
   768   1 H    0.802 --   256 O    0.759
   769   1 H    0.803 --   288 O    0.759
   770   1 H    0.803 --   320 O    0.757
   771   1 H    0.803 --   353 O    0.756
   772   1 H    0.804 --   416 O    0.759
   773   1 H    0.803 --   446 O    0.757
   774   1 H    0.784 --   478 O    0.748
   775   1 H    0.783 --   510 O    0.748
   776   1 H    0.782 --   542 O    0.747
   777   1 H    0.782 --   572 O    0.747
   778   1 H    0.783 --   604 O    0.749
   779   1 H    0.786 --   636 O    0.751
   780   1 H    0.802 --   669 O    0.758
   781   1 H    0.805 --   699 O    0.758
   782   1 H    0.802 --   731 O    0.756
 ---------------------------------------------------------------------------

Topologies differ in total number of bonds
Writing topology from bond orders to xtbtopo.mol

molecular dipole:
                 x           y           z       tot (Debye)
 q only:       -0.334       0.161      -1.309
   full:        2.332       1.545      -1.279       7.818
molecular quadrupole (traceless):
                xx          xy          yy          xz          yz          zz
 q only:      816.739    -128.890     679.558     492.459       2.503   -1496.297
  q+dip:      879.791    -166.097     766.449     729.167      61.432   -1646.240
   full:      859.405    -165.090     754.420     728.187      46.376   -1613.824


           -------------------------------------------------
          | TOTAL ENERGY            -1548.384852402356 Eh   |
          | GRADIENT NORM               0.714103832088 Eh/α |
          | HOMO-LUMO GAP               2.323581210177 eV   |
           -------------------------------------------------

------------------------------------------------------------------------
 * finished run on 2023/03/09 at 13:52:33.576     
------------------------------------------------------------------------
 total:
 * wall-time:     0 d,  0 h,  0 min, 12.081 sec
 *  cpu-time:     0 d,  0 h,  1 min, 48.786 sec
 * ratio c/w:     9.005 speedup
 SCF:
 * wall-time:     0 d,  0 h,  0 min, 10.925 sec
 *  cpu-time:     0 d,  0 h,  1 min, 41.455 sec
 * ratio c/w:     9.286 speedup

