      -----------------------------------------------------------      
     |                   =====================                   |     
     |                           x T B                           |     
     |                   =====================                   |     
     |                         S. Grimme                         |     
     |          Mulliken Center for Theoretical Chemistry        |     
     |                    University of Bonn                     |     
      -----------------------------------------------------------      

   * xtb version 6.5.1 (579679a) compiled by 'ehlert@majestix' on 2022-07-11

   xtb is free software: you can redistribute it and/or modify it under
   the terms of the GNU Lesser General Public License as published by
   the Free Software Foundation, either version 3 of the License, or
   (at your option) any later version.
   
   xtb is distributed in the hope that it will be useful,
   but WITHOUT ANY WARRANTY; without even the implied warranty of
   MERCHANTABILITY or FITNESS FOR A PARTICULAR PURPOSE.  See the
   GNU Lesser General Public License for more details.
   
   Cite this work as:
   * C. Bannwarth, E. Caldeweyher, S. Ehlert, A. Hansen, P. Pracht,
     J. Seibert, S. Spicher, S. Grimme, WIREs Comput. Mol. Sci., 2020, 11,
     e01493. DOI: 10.1002/wcms.1493
   
   for GFN2-xTB:
   * C. Bannwarth, S. Ehlert and S. Grimme., J. Chem. Theory Comput., 2019,
     15, 1652-1671. DOI: 10.1021/acs.jctc.8b01176
   for GFN1-xTB:
   * S. Grimme, C. Bannwarth, P. Shushkov, J. Chem. Theory Comput., 2017,
     13, 1989-2009. DOI: 10.1021/acs.jctc.7b00118
   for GFN0-xTB:
   * P. Pracht, E. Caldeweyher, S. Ehlert, S. Grimme, ChemRxiv, 2019, preprint.
     DOI: 10.26434/chemrxiv.8326202.v1
   for GFN-FF:
   * S. Spicher and S. Grimme, Angew. Chem. Int. Ed., 2020, 59, 15665-15673.
     DOI: 10.1002/anie.202004239
   
   for ALPB and GBSA implicit solvation:
   * S. Ehlert, M. Stahn, S. Spicher, S. Grimme, J. Chem. Theory Comput.,
     2021, 17, 4250-4261. DOI: 10.1021/acs.jctc.1c00471
   
   for DFT-D4:
   * E. Caldeweyher, C. Bannwarth and S. Grimme, J. Chem. Phys., 2017,
     147, 034112. DOI: 10.1063/1.4993215
   * E. Caldeweyher, S. Ehlert, A. Hansen, H. Neugebauer, S. Spicher,
     C. Bannwarth and S. Grimme, J. Chem. Phys., 2019, 150, 154122.
     DOI: 10.1063/1.5090222
   * E. Caldeweyher, J.-M. Mewes, S. Ehlert and S. Grimme, Phys. Chem. Chem. Phys.
     2020, 22, 8499-8512. DOI: 10.1039/D0CP00502A
   
   for sTDA-xTB:
   * S. Grimme and C. Bannwarth, J. Chem. Phys., 2016, 145, 054103.
     DOI: 10.1063/1.4959605
   
   in the mass-spec context:
   * V. Asgeirsson, C. Bauer and S. Grimme, Chem. Sci., 2017, 8, 4879.
     DOI: 10.1039/c7sc00601b
   * J. Koopman and S. Grimme, ACS Omega 2019, 4, 12, 15120-15133.
     DOI: 10.1021/acsomega.9b02011
   
   for metadynamics refer to:
   * S. Grimme, J. Chem. Theory Comput., 2019, 155, 2847-2862
     DOI: 10.1021/acs.jctc.9b00143
   
   for SPH calculations refer to:
   * S. Spicher and S. Grimme, J. Chem. Theory Comput., 2021, 17, 1701-1714
     DOI: 10.1021/acs.jctc.0c01306
   
   with help from (in alphabetical order)
   P. Atkinson, C. Bannwarth, F. Bohle, G. Brandenburg, E. Caldeweyher
   M. Checinski, S. Dohm, S. Ehlert, S. Ehrlich, I. Gerasimov, C. Hölzer
   A. Katbashev, J. Koopman, C. Lavigne, S. Lehtola, F. März, M. Müller,
   F. Musil, H. Neugebauer, J. Pisarek, C. Plett, P. Pracht, F. Pultar,
   J. Seibert, P. Shushkov, S. Spicher, M. Stahn, M. Steiner, T. Strunk,
   J. Stückrath, T. Rose, and J. Unsleber
   
 * started run on 2023/03/09 at 13:52:09.463     

           -------------------------------------------------
          |                Calculation Setup                |
           -------------------------------------------------

          program call               : /N/u/schandy/BigRed3/bin/xtb-6.5.1/bin/xtb 6xah.xyz --alpb water
          hostname                   : nid00066
          coordinate file            : 6xah.xyz
          omp threads                :                    10

   ID    Z sym.   atoms
    1    8 O      1, 4, 6, 11, 14, 32-34, 37, 39, 64-66, 69, 71, 76, 79,
                  96-98, 101, 103, 111, 129-131, 134, 136, 141, 144, 161-163,
                  166, 168, 173, 191-193, 196, 198, 203, 206, 223-225, 228,
                  230, 254-256, 259, 261, 286-288, 291, 293, 301, 319-321,
                  324, 326, 331, 334, 351-353, 356, 358, 363, 366, 383-385,
                  388, 390, 395, 413-415, 418, 420, 445-447, 450, 452, 457,
                  460, 477-479, 482, 484, 489, 507-509, 512, 514, 519, 522,
                  539-541, 544, 546, 571, 574, 576, 581, 584, 602-604, 607,
                  609, 634-636, 639, 641, 649, 667-669, 672, 674, 699-701,
                  704, 706, 711, 714, 731-733, 736, 738, 746, 764-766, 769,
                  771, 796-798, 801, 803, 828-830, 833, 835, 840, 858-860,
                  863, 867, 876-878, 881, 883, 888, 891, 908-910, 913, 915,
                  940-942, 945, 947, 955, 973-975, 978, 980, 1005-1007, 1010,
                  1012, 1017, 1035-1037, 1040, 1042, 1067-1069, 1072, 1074,
                  1079, 1082, 1099-1101, 1104, 1106
    2    6 C      2, 3, 5, 7, 8, 10, 13, 15-17, 35, 36, 38, 40, 41, 43, 45,
                  46, 49, 51, 67, 68, 70, 72, 73, 75, 78, 80-82, 99, 100,
                  102, 104, 105, 107, 109, 110, 113, 116, 132, 133, 135, 137,
                  138, 140, 143, 145-147, 164, 165, 167, 169, 170, 172, 175,
                  177, 178, 194, 195, 197, 199, 200, 202, 205, 207-209, 226,
                  227, 229, 231, 232, 234, 236, 237, 240, 242, 257, 258, 260,
                  262, 263, 265, 267, 268, 271, 273, 289, 290, 292, 294, 295,
                  297, 299, 300, 303, 306, 322, 323, 325, 327, 328, 330, 333,
                  335-337, 354, 355, 357, 359, 360, 362, 365, 367-369, 386,
                  387, 389, 391, 392, 394, 397, 399, 400, 416, 417, 419, 421,
                  422, 424, 426, 427, 430, 432, 448, 449, 451, 453, 454, 456,
                  459, 461-463, 480, 481, 483, 485, 486, 488, 491, 493, 494,
                  510, 511, 513, 515, 516, 518, 521, 523-525, 542, 543, 545,
                  547, 548, 550, 552, 553, 556, 558, 572, 573, 575, 577, 578,
                  580, 583, 585-587, 605, 606, 608, 610, 611, 613, 615, 616,
                  619, 621, 637, 638, 640, 642, 643, 645, 647, 648, 651, 654,
                  670, 671, 673, 675, 676, 678, 680, 681, 684, 686, 702, 703,
                  705, 707, 708, 710, 713, 715-717, 734, 735, 737, 739, 740,
                  742, 744, 745, 748, 751, 767, 768, 770, 772, 773, 775, 777,
                  778, 781, 783, 799, 800, 802, 804, 805, 807, 809, 810, 813,
                  815, 831, 832, 834, 836, 837, 839, 842, 844, 845, 861, 862,
                  864-866, 879, 880, 882, 884, 885, 887, 890, 892-894, 911,
                  912, 914, 916, 917, 919, 921, 922, 925, 927, 943, 944, 946,
                  948, 949, 951, 953, 954, 957, 960, 976, 977, 979, 981, 982,
                  984, 986, 987, 990, 992, 1008, 1009, 1011, 1013, 1014,
                  1016, 1019, 1021, 1022, 1038, 1039, 1041, 1043, 1044, 1046,
                  1048, 1049, 1052, 1054, 1070, 1071, 1073, 1075, 1076, 1078,
                  1081, 1083-1085, 1102, 1103, 1105, 1107, 1108, 1110, 1112,
                  1113, 1116, 1118
    3    7 N      9, 12, 42, 44, 47, 48, 50, 74, 77, 106, 108, 112, 114, 115,
                  139, 142, 171, 174, 176, 201, 204, 233, 235, 238, 239, 241,
                  264, 266, 269, 270, 272, 296, 298, 302, 304, 305, 329, 332,
                  361, 364, 393, 396, 398, 423, 425, 428, 429, 431, 455, 458,
                  487, 490, 492, 517, 520, 549, 551, 554, 555, 557, 579, 582,
                  612, 614, 617, 618, 620, 644, 646, 650, 652, 653, 677, 679,
                  682, 683, 685, 709, 712, 741, 743, 747, 749, 750, 774, 776,
                  779, 780, 782, 806, 808, 811, 812, 814, 838, 841, 843, 886,
                  889, 918, 920, 923, 924, 926, 950, 952, 956, 958, 959, 983,
                  985, 988, 989, 991, 1015, 1018, 1020, 1045, 1047, 1050,
                  1051, 1053, 1077, 1080, 1109, 1111, 1114, 1115, 1117
    4    1 H      18-30, 52-62, 83-94, 117-127, 148-159, 179-189, 210-221,
                  243-252, 274-284, 307-317, 338-349, 370-381, 401-411,
                  433-443, 464-475, 495-505, 526-537, 559-570, 588-600,
                  622-632, 655-665, 687-697, 718-729, 752-762, 784-794,
                  816-826, 846-856, 868-874, 895-906, 928-938, 961-971,
                  993-1003, 1023-1033, 1055-1065, 1086-1097, 1119-1164
    5   15 P      31, 63, 95, 128, 160, 190, 222, 253, 285, 318, 350, 382,
                  412, 444, 476, 506, 538, 601, 633, 666, 698, 730, 763, 795,
                  827, 857, 875, 907, 939, 972, 1004, 1034, 1066, 1098

           -------------------------------------------------
          |                 G F N 2 - x T B                 |
           -------------------------------------------------

        Reference                      10.1021/acs.jctc.8b01176
      * Hamiltonian:
        H0-scaling (s, p, d)           1.850000    2.230000    2.230000
        zeta-weighting                 0.500000
      * Dispersion:
        s8                             2.700000
        a1                             0.520000
        a2                             5.000000
        s9                             5.000000
      * Repulsion:
        kExp                           1.500000    1.000000
        rExp                           1.000000
      * Coulomb:
        alpha                          2.000000
        third order                    shell-resolved
        anisotropic                    true
        a3                             3.000000
        a5                             4.000000
        cn-shift                       1.200000
        cn-exp                         4.000000
        max-rad                        5.000000

      * Solvation model:               ALPB
        Solvent                        water
        Parameter file                 internal GFN2-xTB/ALPB
        Dielectric constant                8.0200E+01
        Reference state                gsolv [1 M gas/solution]
        Free energy shift                  1.0808E-03 Eh       6.7819E-01 kcal/mol
        Temperature                        2.9815E+02 K
        Density                            1.0000E+00 kg/L
        Solvent mass                       1.8000E+01 g/mol
        Interaction kernel             P16
        Born radius scaling (c1)           1.4744E+00
        Born radii integrator          GBOBC
        Born offset                        0.0000E+00 a0       0.0000E+00 AA
        H-bond correction              true
        Ion screening                  false
        Surface tension                    1.0000E-05 Eh       1.5569E+01 dyn/cm
        Grid points                               230 per atom

          ...................................................
          :                      SETUP                      :
          :.................................................:
          :  # basis functions                3537          :
          :  # atomic orbitals                3503          :
          :  # shells                         1921          :
          :  # electrons                      3916          :
          :  max. iterations                   250          :
          :  Hamiltonian                  GFN2-xTB          :
          :  restarted?                      false          :
          :  GBSA solvation                   true          :
          :  PC potential                    false          :
          :  electronic temp.          300.0000000     K    :
          :  accuracy                    1.0000000          :
          :  -> integral cutoff          0.2500000E+02      :
          :  -> integral neglect         0.1000000E-07      :
          :  -> SCF convergence          0.1000000E-05 Eh   :
          :  -> wf. convergence          0.1000000E-03 e    :
          :  Broyden damping             0.4000000          :
          ...................................................

 iter      E             dE          RMSdq      gap      omega  full diag
   1  -2315.5739171 -0.231557E+04  0.599E+00    2.79       0.0  T
   2  -2321.0432288 -0.546931E+01  0.344E+00    2.09       1.0  T
   3  -2321.4125897 -0.369361E+00  0.147E+00    2.80       1.0  T
   4  -2321.8679783 -0.455389E+00  0.656E-01    2.42       1.0  T
   5  -2322.0512484 -0.183270E+00  0.321E-01    2.51       1.0  T
   6  -2322.0769637 -0.257153E-01  0.139E-01    2.51       1.0  T
   7  -2322.0829790 -0.601533E-02  0.703E-02    2.52       1.0  T
   8  -2322.0836018 -0.622747E-03  0.394E-02    2.51       1.0  T
   9  -2322.0840265 -0.424743E-03  0.161E-02    2.52       1.0  T
  10  -2322.0841148 -0.882585E-04  0.640E-03    2.52       1.0  T
  11  -2322.0841213 -0.658603E-05  0.358E-03    2.52       1.0  T
  12  -2322.0841264 -0.501656E-05  0.137E-03    2.52       2.1  T
  13  -2322.0841268 -0.469069E-06  0.735E-04    2.52       4.0  T
  14  -2322.0841270 -0.143285E-06  0.387E-04    2.52       7.6  T

   *** convergence criteria satisfied after 14 iterations ***

         #    Occupation            Energy/Eh            Energy/eV
      -------------------------------------------------------------
         1        2.0000           -0.7756190             -21.1057
       ...           ...                  ...                  ...
      1952        2.0000           -0.3778442             -10.2817
      1953        2.0000           -0.3772741             -10.2662
      1954        2.0000           -0.3769402             -10.2571
      1955        2.0000           -0.3762626             -10.2386
      1956        2.0000           -0.3741990             -10.1825
      1957        2.0000           -0.3741602             -10.1814
      1958        2.0000           -0.3737301             -10.1697 (HOMO)
      1959                         -0.2812244              -7.6525 (LUMO)
      1960                         -0.2810141              -7.6468
      1961                         -0.2807379              -7.6393
      1962                         -0.2805043              -7.6329
      1963                         -0.2798187              -7.6143
       ...                                ...                  ...
      3503                          1.3616489              37.0524
      -------------------------------------------------------------
                  HL-Gap            0.0925057 Eh            2.5172 eV
             Fermi-level           -0.3274772 Eh           -8.9111 eV

 SCC (total)                   0 d,  0 h,  0 min, 34.651 sec
 SCC setup                      ...        0 min,  0.172 sec (  0.497%)
 Dispersion                     ...        0 min,  0.635 sec (  1.832%)
 classical contributions        ...        0 min,  0.006 sec (  0.019%)
 integral evaluation            ...        0 min,  1.444 sec (  4.167%)
 iterations                     ...        0 min, 27.575 sec ( 79.578%)
 molecular gradient             ...        0 min,  4.481 sec ( 12.930%)
 printout                       ...        0 min,  0.339 sec (  0.977%)

         :::::::::::::::::::::::::::::::::::::::::::::::::::::
         ::                     SUMMARY                     ::
         :::::::::::::::::::::::::::::::::::::::::::::::::::::
         :: total energy           -2299.879845172848 Eh    ::
         :: total w/o Gsasa/hb     -2299.538630093141 Eh    ::
         :: gradient norm              0.821947326252 Eh/a0 ::
         :: HOMO-LUMO gap              2.517207823680 eV    ::
         ::.................................................::
         :: SCC energy             -2322.084126978412 Eh    ::
         :: -> isotropic ES            8.272205259015 Eh    ::
         :: -> anisotropic ES         -0.535537700243 Eh    ::
         :: -> anisotropic XC          0.435006011097 Eh    ::
         :: -> dispersion             -2.014279539777 Eh    ::
         :: -> Gsolv                  -1.678434685954 Eh    ::
         ::    -> Gelec               -1.337219606247 Eh    ::
         ::    -> Gsasa                0.104148979899 Eh    ::
         ::    -> Ghb                 -0.446444819304 Eh    ::
         ::    -> Gshift               0.001080759698 Eh    ::
         :: repulsion energy          22.030295394028 Eh    ::
         :: add. restraining           0.000000000000 Eh    ::
         :: total charge              -0.000000000000 e     ::
         :::::::::::::::::::::::::::::::::::::::::::::::::::::

           -------------------------------------------------
          |                Property Printout                |
           -------------------------------------------------

    * Orbital Energies and Occupations

         #    Occupation            Energy/Eh            Energy/eV
      -------------------------------------------------------------
         1        2.0000           -0.7756190             -21.1057
       ...           ...                  ...                  ...
      1946        2.0000           -0.3806534             -10.3581
      1947        2.0000           -0.3802493             -10.3471
      1948        2.0000           -0.3801114             -10.3434
      1949        2.0000           -0.3800233             -10.3410
      1950        2.0000           -0.3792930             -10.3211
      1951        2.0000           -0.3782847             -10.2937
      1952        2.0000           -0.3778442             -10.2817
      1953        2.0000           -0.3772741             -10.2662
      1954        2.0000           -0.3769402             -10.2571
      1955        2.0000           -0.3762626             -10.2386
      1956        2.0000           -0.3741990             -10.1825
      1957        2.0000           -0.3741602             -10.1814
      1958        2.0000           -0.3737301             -10.1697 (HOMO)
      1959                         -0.2812244              -7.6525 (LUMO)
      1960                         -0.2810141              -7.6468
      1961                         -0.2807379              -7.6393
      1962                         -0.2805043              -7.6329
      1963                         -0.2798187              -7.6143
      1964                         -0.2785019              -7.5784
      1965                         -0.2772697              -7.5449
      1966                         -0.2756083              -7.4997
      1967                         -0.2747653              -7.4767
      1968                         -0.2723852              -7.4120
      1969                         -0.2719058              -7.3989
       ...                                ...                  ...
      3503                          1.3616489              37.0524
      -------------------------------------------------------------
                  HL-Gap            0.0925057 Eh            2.5172 eV
             Fermi-level           -0.3274772 Eh           -8.9111 eV

 * generalized Born model for continuum solvation

     #   Z     Born rad/Å   SASA/Å²    H-bond
     1   8 O        2.030     6.026    -0.001
     2   6 C        2.327     0.650    -0.000
     3   6 C        2.512     0.210    -0.000
     4   8 O        2.344     9.708    -0.001
     5   6 C        2.598     0.130    -0.000
     6   8 O        2.327     3.995    -0.000
     7   6 C        2.584     0.227    -0.000
     8   6 C        2.675     0.383    -0.000
     9   7 N        2.627     0.738    -0.000
    10   6 C        2.633     4.530    -0.000
    11   8 O        2.145    14.316    -0.002
    12   7 N        2.443     2.005    -0.000
    13   6 C        2.613     3.875    -0.000
    14   8 O        2.152    11.196    -0.001
    15   6 C        2.659     2.082    -0.000
    16   6 C        2.370     3.382    -0.000
    17   6 C        2.681     3.941    -0.000
    18   1 H        1.823    19.968    -0.034
    19   1 H        1.829    18.930    -0.032
    20   1 H        1.910    17.497    -0.029
    21   1 H        1.984     7.420    -0.012
    22   1 H        2.003     5.261    -0.009
    23   1 H        2.018     0.068    -0.000
    24   1 H        1.985     9.219    -0.015
    25   1 H        2.157     2.764    -0.005
    26   1 H        1.852    18.158    -0.030
    27   1 H        1.857    17.267    -0.029
    28   1 H        1.844    21.218    -0.036
    29   1 H        1.996     3.374    -0.006
    30   1 H        1.713    25.397    -0.043
    31  15 P        2.752     7.312    -0.001
    32   8 O        2.066    11.238    -0.001
    33   8 O        2.073    26.825    -0.003
    34   8 O        2.310     0.657    -0.000
    35   6 C        2.444     0.412    -0.000
    36   6 C        2.591     0.193    -0.000
    37   8 O        2.413     6.122    -0.001
    38   6 C        2.648     0.186    -0.000
    39   8 O        2.404     0.837    -0.000
    40   6 C        2.611     0.674    -0.000
    41   6 C        2.780     0.083    -0.000
    42   7 N        2.867     0.004    -0.000
    43   6 C        2.737     0.378    -0.000
    44   7 N        2.523     6.125    -0.000
    45   6 C        3.183     0.003    -0.000
    46   6 C        2.907     0.000    -0.000
    47   7 N        2.318     0.136    -0.000
    48   7 N        2.666     0.000     0.000
    49   6 C        2.728     0.353    -0.000
    50   7 N        2.540     7.137    -0.000
    51   6 C        3.207     0.172    -0.000
    52   1 H        1.887    13.510    -0.023
    53   1 H        1.880     9.039    -0.015
    54   1 H        1.974     7.086    -0.012
    55   1 H        1.993    10.192    -0.017
    56   1 H        2.019     6.632    -0.011
    57   1 H        2.028     2.215    -0.004
    58   1 H        2.125     1.177    -0.002
    59   1 H        1.997     6.580    -0.011
    60   1 H        2.005     1.137    -0.002
    61   1 H        1.933     9.309    -0.016
    62   1 H        2.022     7.614    -0.013
    63  15 P        2.776     7.869    -0.002
    64   8 O        2.107    12.600    -0.001
    65   8 O        2.065    31.495    -0.003
    66   8 O        2.272     5.459    -0.001
    67   6 C        2.434     0.732    -0.000
    68   6 C        2.574     0.129    -0.000
    69   8 O        2.438     1.938    -0.000
    70   6 C        2.623     0.016    -0.000
    71   8 O        2.338     3.017    -0.000
    72   6 C        2.613     0.052    -0.000
    73   6 C        2.746     0.091    -0.000
    74   7 N        2.752     0.000     0.000
    75   6 C        2.776     0.001    -0.000
    76   8 O        2.221     6.229    -0.001
    77   7 N        2.604     0.000     0.000
    78   6 C        2.748     0.000    -0.000
    79   8 O        2.222     6.970    -0.001
    80   6 C        2.780     0.028    -0.000
    81   6 C        2.419     2.754    -0.000
    82   6 C        2.798     0.384    -0.000
    83   1 H        1.910     9.180    -0.015
    84   1 H        1.858    19.737    -0.033
    85   1 H        1.959    14.185    -0.024
    86   1 H        1.993     7.234    -0.012
    87   1 H        2.015     7.776    -0.013
    88   1 H        2.045     0.031    -0.000
    89   1 H        2.039     7.302    -0.012
    90   1 H        2.290     0.000     0.000
    91   1 H        1.877    17.686    -0.030
    92   1 H        1.889    12.371    -0.021
    93   1 H        1.878    15.719    -0.026
    94   1 H        2.044     4.272    -0.007
    95  15 P        2.765     9.105    -0.002
    96   8 O        2.069    14.865    -0.002
    97   8 O        2.081    26.709    -0.003
    98   8 O        2.314     0.849    -0.000
    99   6 C        2.447     0.343    -0.000
   100   6 C        2.565     0.156    -0.000
   101   8 O        2.416     5.698    -0.001
   102   6 C        2.632     0.160    -0.000
   103   8 O        2.353     4.025    -0.000
   104   6 C        2.642     0.021    -0.000
   105   6 C        2.753     0.357    -0.000
   106   7 N        2.874     0.038    -0.000
   107   6 C        2.767     0.273    -0.000
   108   7 N        2.568     4.351    -0.000
   109   6 C        3.132     0.012    -0.000
   110   6 C        2.800     0.020    -0.000
   111   8 O        2.254     2.303    -0.000
   112   7 N        2.705     0.000     0.000
   113   6 C        2.863     0.000    -0.000
   114   7 N        2.316     0.250    -0.000
   115   7 N        2.642     2.552    -0.000
   116   6 C        3.236     0.002    -0.000
   117   1 H        1.897    11.733    -0.020
   118   1 H        1.882    13.747    -0.023
   119   1 H        1.941    16.027    -0.027
   120   1 H        1.989     8.525    -0.014
   121   1 H        2.040     4.823    -0.008
   122   1 H        2.069     0.000    -0.000
   123   1 H        2.047     6.553    -0.011
   124   1 H        2.036     3.356    -0.006
   125   1 H        2.338     0.000     0.000
   126   1 H        1.929    14.126    -0.024
   127   1 H        1.991     1.703    -0.003
   128  15 P        2.778     8.556    -0.002
   129   8 O        2.072    16.608    -0.002
   130   8 O        2.095    22.677    -0.003
   131   8 O        2.328     0.400    -0.000
   132   6 C        2.457     0.349    -0.000
   133   6 C        2.566     0.120    -0.000
   134   8 O        2.416     3.498    -0.000
   135   6 C        2.629     0.069    -0.000
   136   8 O        2.339     4.443    -0.000
   137   6 C        2.616     0.221    -0.000
   138   6 C        2.744     0.019    -0.000
   139   7 N        2.748     0.000     0.000
   140   6 C        2.759     0.000    -0.000
   141   8 O        2.218     6.993    -0.001
   142   7 N        2.585     0.000     0.000
   143   6 C        2.759     0.000     0.000
   144   8 O        2.235     7.579    -0.001
   145   6 C        2.795     0.012    -0.000
   146   6 C        2.449     2.447    -0.000
   147   6 C        2.805     0.254    -0.000
   148   1 H        1.899    11.458    -0.019
   149   1 H        1.893    10.149    -0.017
   150   1 H        1.938    16.711    -0.028
   151   1 H        1.996     7.318    -0.012
   152   1 H        2.022     7.956    -0.013
   153   1 H        2.034     0.468    -0.001
   154   1 H        2.023     6.206    -0.010
   155   1 H        2.287     0.000    -0.000
   156   1 H        1.946     6.352    -0.011
   157   1 H        1.904    10.048    -0.017
   158   1 H        1.881    16.261    -0.027
   159   1 H        2.069     1.504    -0.003
   160  15 P        2.765    10.118    -0.002
   161   8 O        2.069    16.625    -0.002
   162   8 O        2.084    26.239    -0.003
   163   8 O        2.304     1.821    -0.000
   164   6 C        2.444     0.303    -0.000
   165   6 C        2.562     0.086    -0.000
   166   8 O        2.415     3.128    -0.000
   167   6 C        2.623     0.014    -0.000
   168   8 O        2.344     4.200    -0.000
   169   6 C        2.613     0.122    -0.000
   170   6 C        2.725     0.278    -0.000
   171   7 N        2.727     0.000    -0.000
   172   6 C        2.748     0.131    -0.000
   173   8 O        2.220     6.194    -0.001
   174   7 N        2.633     0.000     0.000
   175   6 C        2.839     0.000     0.000
   176   7 N        2.324     0.073    -0.000
   177   6 C        2.744     0.002    -0.000
   178   6 C        2.757     0.000    -0.000
   179   1 H        1.900    11.119    -0.019
   180   1 H        1.880    12.300    -0.021
   181   1 H        1.944    15.527    -0.026
   182   1 H        1.997     6.872    -0.012
   183   1 H        2.025     4.595    -0.008
   184   1 H        2.034     0.039    -0.000
   185   1 H        2.012     8.360    -0.014
   186   1 H        2.005     0.957    -0.002
   187   1 H        1.939     8.301    -0.014
   188   1 H        2.011     8.304    -0.014
   189   1 H        2.044     3.661    -0.006
   190  15 P        2.764     9.916    -0.002
   191   8 O        2.069    16.612    -0.002
   192   8 O        2.081    26.639    -0.003
   193   8 O        2.304     1.955    -0.000
   194   6 C        2.443     0.326    -0.000
   195   6 C        2.566     0.090    -0.000
   196   8 O        2.419     2.648    -0.000
   197   6 C        2.615     0.011    -0.000
   198   8 O        2.344     3.669    -0.000
   199   6 C        2.582     0.618    -0.000
   200   6 C        2.705     0.122    -0.000
   201   7 N        2.673     0.568    -0.000
   202   6 C        2.684     0.746    -0.000
   203   8 O        2.192     7.851    -0.001
   204   7 N        2.521     0.012    -0.000
   205   6 C        2.693     0.256    -0.000
   206   8 O        2.204     6.271    -0.001
   207   6 C        2.738     1.708    -0.000
   208   6 C        2.414     2.768    -0.000
   209   6 C        2.741     2.145    -0.000
   210   1 H        1.902    10.961    -0.018
   211   1 H        1.877    12.920    -0.022
   212   1 H        1.952    14.827    -0.025
   213   1 H        1.990     7.424    -0.012
   214   1 H        1.995    11.163    -0.019
   215   1 H        1.994     3.480    -0.006
   216   1 H        2.008     8.174    -0.014
   217   1 H        2.247     0.000     0.000
   218   1 H        1.904     8.802    -0.015
   219   1 H        1.875    15.386    -0.026
   220   1 H        1.865    20.679    -0.035
   221   1 H        2.025     4.344    -0.007
   222  15 P        2.766     8.876    -0.002
   223   8 O        2.071    16.478    -0.002
   224   8 O        2.083    26.448    -0.003
   225   8 O        2.301     1.142    -0.000
   226   6 C        2.451     0.352    -0.000
   227   6 C        2.572     0.153    -0.000
   228   8 O        2.418     4.764    -0.001
   229   6 C        2.639     0.021    -0.000
   230   8 O        2.363     3.237    -0.000
   231   6 C        2.658     0.000     0.000
   232   6 C        2.735     0.161    -0.000
   233   7 N        2.846     0.000    -0.000
   234   6 C        2.681     5.536    -0.001
   235   7 N        2.467    12.778    -0.001
   236   6 C        3.143     0.000    -0.000
   237   6 C        2.966     0.025    -0.000
   238   7 N        2.490     0.754    -0.000
   239   7 N        2.618     2.791    -0.000
   240   6 C        2.725     0.269    -0.000
   241   7 N        2.545     4.357    -0.000
   242   6 C        3.192     0.001    -0.000
   243   1 H        1.899     9.661    -0.016
   244   1 H        1.900     9.332    -0.016
   245   1 H        1.961    13.770    -0.023
   246   1 H        1.996     7.816    -0.013
   247   1 H        2.061     4.412    -0.007
   248   1 H        2.106     0.000    -0.000
   249   1 H        2.020     9.161    -0.015
   250   1 H        1.978    12.088    -0.020
   251   1 H        2.041    10.329    -0.017
   252   1 H        2.019    11.914    -0.020
   253  15 P        2.785     9.510    -0.002
   254   8 O        2.070    16.752    -0.002
   255   8 O        2.103    21.510    -0.002
   256   8 O        2.339     0.683    -0.000
   257   6 C        2.458     0.304    -0.000
   258   6 C        2.565     0.148    -0.000
   259   8 O        2.398     7.031    -0.001
   260   6 C        2.622     0.123    -0.000
   261   8 O        2.342     4.517    -0.001
   262   6 C        2.647     0.003    -0.000
   263   6 C        2.746     0.169    -0.000
   264   7 N        2.875     0.005    -0.000
   265   6 C        2.726     1.476    -0.000
   266   7 N        2.501     8.613    -0.001
   267   6 C        3.198     0.000    -0.000
   268   6 C        2.924     0.000    -0.000
   269   7 N        2.327     0.380    -0.000
   270   7 N        2.618     2.770    -0.000
   271   6 C        2.722     0.311    -0.000
   272   7 N        2.539     6.217    -0.000
   273   6 C        3.233     0.053    -0.000
   274   1 H        1.905    10.673    -0.018
   275   1 H        1.885    11.258    -0.019
   276   1 H        1.937    16.472    -0.028
   277   1 H        1.983     9.141    -0.015
   278   1 H        2.051     5.280    -0.009
   279   1 H        2.091     0.000     0.000
   280   1 H        2.049     5.963    -0.010
   281   1 H        1.999     6.323    -0.011
   282   1 H        1.980     7.481    -0.013
   283   1 H        1.944    12.106    -0.020
   284   1 H        1.998    16.086    -0.027
   285  15 P        2.771     7.154    -0.001
   286   8 O        2.066    12.496    -0.001
   287   8 O        2.087    23.710    -0.003
   288   8 O        2.319     1.535    -0.000
   289   6 C        2.460     0.326    -0.000
   290   6 C        2.572     0.132    -0.000
   291   8 O        2.430     3.634    -0.000
   292   6 C        2.632     0.118    -0.000
   293   8 O        2.363     3.472    -0.000
   294   6 C        2.633     0.120    -0.000
   295   6 C        2.775     0.104    -0.000
   296   7 N        2.885     0.000    -0.000
   297   6 C        2.721     0.530    -0.000
   298   7 N        2.486    12.129    -0.001
   299   6 C        3.093     0.023    -0.000
   300   6 C        2.766     0.054    -0.000
   301   8 O        2.221     9.419    -0.001
   302   7 N        2.676     0.000     0.000
   303   6 C        2.837     0.000     0.000
   304   7 N        2.292     0.813    -0.000
   305   7 N        2.652     2.196    -0.000
   306   6 C        3.250     0.004    -0.000
   307   1 H        1.918    10.238    -0.017
   308   1 H        1.884    14.995    -0.025
   309   1 H        1.942    15.604    -0.026
   310   1 H        1.977    10.728    -0.018
   311   1 H        2.023     5.990    -0.010
   312   1 H        2.060     0.004    -0.000
   313   1 H        2.077     2.928    -0.005
   314   1 H        1.988     7.332    -0.012
   315   1 H        2.309     0.000     0.000
   316   1 H        1.916    16.084    -0.027
   317   1 H        1.971     2.496    -0.004
   318  15 P        2.781     6.304    -0.001
   319   8 O        2.071    11.889    -0.001
   320   8 O        2.099    22.065    -0.002
   321   8 O        2.331     0.301    -0.000
   322   6 C        2.466     0.348    -0.000
   323   6 C        2.568     0.191    -0.000
   324   8 O        2.421     3.782    -0.000
   325   6 C        2.626     0.223    -0.000
   326   8 O        2.350     3.993    -0.000
   327   6 C        2.622     0.308    -0.000
   328   6 C        2.756     0.031    -0.000
   329   7 N        2.756     0.000     0.000
   330   6 C        2.760     0.000     0.000
   331   8 O        2.206     7.950    -0.001
   332   7 N        2.590     0.000     0.000
   333   6 C        2.782     0.000     0.000
   334   8 O        2.252     4.143    -0.000
   335   6 C        2.838     0.000     0.000
   336   6 C        2.470     1.863    -0.000
   337   6 C        2.844     0.000     0.000
   338   1 H        1.908     9.510    -0.016
   339   1 H        1.894    13.448    -0.023
   340   1 H        1.929    17.501    -0.029
   341   1 H        1.982     8.924    -0.015
   342   1 H        2.028     4.678    -0.008
   343   1 H        2.034     1.097    -0.002
   344   1 H        2.045     3.496    -0.006
   345   1 H        2.268     0.000    -0.000
   346   1 H        1.915     7.484    -0.013
   347   1 H        1.899    11.958    -0.020
   348   1 H        1.960     5.713    -0.010
   349   1 H        2.086     0.645    -0.001
   350  15 P        2.764     7.102    -0.001
   351   8 O        2.067    12.129    -0.001
   352   8 O        2.081    25.775    -0.003
   353   8 O        2.310     2.011    -0.000
   354   6 C        2.448     0.383    -0.000
   355   6 C        2.574     0.073    -0.000
   356   8 O        2.448     0.808    -0.000
   357   6 C        2.625     0.073    -0.000
   358   8 O        2.359     3.073    -0.000
   359   6 C        2.602     0.249    -0.000
   360   6 C        2.759     0.023    -0.000
   361   7 N        2.751     0.000     0.000
   362   6 C        2.768     0.000     0.000
   363   8 O        2.230     4.080    -0.000
   364   7 N        2.586     0.000     0.000
   365   6 C        2.742     0.000     0.000
   366   8 O        2.209     5.590    -0.001
   367   6 C        2.781     0.004    -0.000
   368   6 C        2.423     2.563    -0.000
   369   6 C        2.812     0.086    -0.000
   370   1 H        1.908    11.011    -0.018
   371   1 H        1.876    16.216    -0.027
   372   1 H        1.954    14.844    -0.025
   373   1 H        1.978     9.360    -0.016
   374   1 H        2.000     9.704    -0.016
   375   1 H        2.020     2.052    -0.003
   376   1 H        2.062     3.701    -0.006
   377   1 H        2.284     0.000     0.000
   378   1 H        1.882    14.986    -0.025
   379   1 H        1.873    15.495    -0.026
   380   1 H        1.902     8.173    -0.014
   381   1 H        2.060     2.632    -0.004
   382  15 P        2.772     6.211    -0.001
   383   8 O        2.071    11.698    -0.001
   384   8 O        2.091    24.602    -0.003
   385   8 O        2.313     0.655    -0.000
   386   6 C        2.450     0.385    -0.000
   387   6 C        2.563     0.141    -0.000
   388   8 O        2.414     4.867    -0.001
   389   6 C        2.628     0.197    -0.000
   390   8 O        2.363     3.213    -0.000
   391   6 C        2.616     0.521    -0.000
   392   6 C        2.744     0.171    -0.000
   393   7 N        2.728     0.029    -0.000
   394   6 C        2.785     0.010    -0.000
   395   8 O        2.279     2.574    -0.000
   396   7 N        2.635     0.002    -0.000
   397   6 C        2.791     0.550    -0.000
   398   7 N        2.293     1.065    -0.000
   399   6 C        2.720     4.455    -0.000
   400   6 C        2.734     1.961    -0.000
   401   1 H        1.897    12.056    -0.020
   402   1 H        1.885    14.432    -0.024
   403   1 H        1.937    16.531    -0.028
   404   1 H        1.978    10.103    -0.017
   405   1 H        2.012    10.090    -0.017
   406   1 H        2.024     2.516    -0.004
   407   1 H        2.039     4.137    -0.007
   408   1 H        1.978     2.057    -0.003
   409   1 H        1.922    11.649    -0.020
   410   1 H        2.025     9.247    -0.016
   411   1 H        2.050     1.820    -0.003
   412  15 P        2.784     5.307    -0.001
   413   8 O        2.074    11.589    -0.001
   414   8 O        2.102    22.701    -0.003
   415   8 O        2.337     0.063    -0.000
   416   6 C        2.467     0.342    -0.000
   417   6 C        2.569     0.192    -0.000
   418   8 O        2.423     5.156    -0.001
   419   6 C        2.630     0.203    -0.000
   420   8 O        2.349     3.116    -0.000
   421   6 C        2.635     0.207    -0.000
   422   6 C        2.767     0.047    -0.000
   423   7 N        2.893     0.000     0.000
   424   6 C        2.744     0.186    -0.000
   425   7 N        2.528     7.000    -0.000
   426   6 C        3.209     0.001    -0.000
   427   6 C        2.939     0.000     0.000
   428   7 N        2.335     0.083    -0.000
   429   7 N        2.688     0.000    -0.000
   430   6 C        2.767     0.221    -0.000
   431   7 N        2.572     3.452    -0.000
   432   6 C        3.262     0.000     0.000
   433   1 H        1.900    10.490    -0.018
   434   1 H        1.903    12.924    -0.022
   435   1 H        1.933    17.392    -0.029
   436   1 H        1.986     8.675    -0.015
   437   1 H        2.041     3.579    -0.006
   438   1 H        2.044     0.454    -0.001
   439   1 H        2.058     4.668    -0.008
   440   1 H        2.015     2.014    -0.003
   441   1 H        2.008     1.048    -0.002
   442   1 H        1.954    11.334    -0.019
   443   1 H        2.039     7.796    -0.013
   444  15 P        2.768     9.431    -0.002
   445   8 O        2.070    15.346    -0.002
   446   8 O        2.085    25.911    -0.003
   447   8 O        2.313     1.399    -0.000
   448   6 C        2.453     0.360    -0.000
   449   6 C        2.574     0.125    -0.000
   450   8 O        2.444     2.371    -0.000
   451   6 C        2.634     0.038    -0.000
   452   8 O        2.351     3.552    -0.000
   453   6 C        2.628     0.007    -0.000
   454   6 C        2.750     0.121    -0.000
   455   7 N        2.763     0.000    -0.000
   456   6 C        2.765     0.001    -0.000
   457   8 O        2.217     6.858    -0.001
   458   7 N        2.581     0.000     0.000
   459   6 C        2.756     0.000     0.000
   460   8 O        2.228     8.370    -0.001
   461   6 C        2.799     0.019    -0.000
   462   6 C        2.445     2.582    -0.000
   463   6 C        2.809     0.219    -0.000
   464   1 H        1.905    10.702    -0.018
   465   1 H        1.880    14.060    -0.024
   466   1 H        1.949    15.131    -0.025
   467   1 H        1.995     7.717    -0.013
   468   1 H        2.026     6.356    -0.011
   469   1 H        2.066     0.000    -0.000
   470   1 H        2.027     7.062    -0.012
   471   1 H        2.274     0.000    -0.000
   472   1 H        1.933     8.406    -0.014
   473   1 H        1.900    12.450    -0.021
   474   1 H        1.882    16.682    -0.028
   475   1 H        2.058     3.559    -0.006
   476  15 P        2.772     9.300    -0.002
   477   8 O        2.067    16.733    -0.002
   478   8 O        2.090    25.077    -0.003
   479   8 O        2.322     0.505    -0.000
   480   6 C        2.452     0.320    -0.000
   481   6 C        2.560     0.166    -0.000
   482   8 O        2.400     6.087    -0.001
   483   6 C        2.625     0.263    -0.000
   484   8 O        2.346     4.374    -0.000
   485   6 C        2.625     0.413    -0.000
   486   6 C        2.741     0.122    -0.000
   487   7 N        2.737     0.003    -0.000
   488   6 C        2.756     0.185    -0.000
   489   8 O        2.217     7.460    -0.001
   490   7 N        2.642     0.000     0.000
   491   6 C        2.868     0.000     0.000
   492   7 N        2.359     0.028    -0.000
   493   6 C        2.766     0.001    -0.000
   494   6 C        2.770     0.001    -0.000
   495   1 H        1.902    10.691    -0.018
   496   1 H        1.882    11.445    -0.019
   497   1 H        1.929    17.186    -0.029
   498   1 H        1.976     9.458    -0.016
   499   1 H        2.025     5.687    -0.010
   500   1 H        2.030     1.018    -0.002
   501   1 H        2.039     3.469    -0.006
   502   1 H        2.033     0.359    -0.001
   503   1 H        1.967     3.174    -0.005
   504   1 H        2.020     8.058    -0.014
   505   1 H        2.057     2.779    -0.005
   506  15 P        2.769     9.579    -0.002
   507   8 O        2.070    16.638    -0.002
   508   8 O        2.084    25.999    -0.003
   509   8 O        2.333     0.432    -0.000
   510   6 C        2.462     0.357    -0.000
   511   6 C        2.599     0.124    -0.000
   512   8 O        2.439     0.610    -0.000
   513   6 C        2.650     0.172    -0.000
   514   8 O        2.397     0.030    -0.000
   515   6 C        2.600     0.717    -0.000
   516   6 C        2.778     0.012    -0.000
   517   7 N        2.740     0.000     0.000
   518   6 C        2.760     0.000     0.000
   519   8 O        2.246     4.568    -0.001
   520   7 N        2.563     0.000     0.000
   521   6 C        2.692     0.000     0.000
   522   8 O        2.178     9.034    -0.001
   523   6 C        2.743     0.209    -0.000
   524   6 C        2.402     2.826    -0.000
   525   6 C        2.802     0.476    -0.000
   526   1 H        1.904    10.702    -0.018
   527   1 H        1.889     9.401    -0.016
   528   1 H        1.966     9.712    -0.016
   529   1 H        1.996     9.265    -0.016
   530   1 H        2.007     6.494    -0.011
   531   1 H        1.995     7.204    -0.012
   532   1 H        2.087     2.904    -0.005
   533   1 H        2.286     0.000     0.000
   534   1 H        1.873    17.193    -0.029
   535   1 H        1.865    16.477    -0.028
   536   1 H        1.873    15.464    -0.026
   537   1 H        2.065     1.872    -0.003
   538  15 P        2.776     6.266    -0.001
   539   8 O        2.098     9.286    -0.001
   540   8 O        2.073    28.483    -0.003
   541   8 O        2.290     2.354    -0.000
   542   6 C        2.428     0.382    -0.000
   543   6 C        2.519     0.226    -0.000
   544   8 O        2.366     8.931    -0.001
   545   6 C        2.473     0.849    -0.000
   546   8 O        2.048    18.859    -0.002
   547   6 C        2.507     1.027    -0.000
   548   6 C        2.662     0.179    -0.000
   549   7 N        2.715     0.594    -0.000
   550   6 C        2.648     4.927    -0.000
   551   7 N        2.455     8.655    -0.001
   552   6 C        2.998     2.994    -0.000
   553   6 C        2.769     3.587    -0.000
   554   7 N        2.261     3.715    -0.000
   555   7 N        2.515     2.713    -0.000
   556   6 C        2.597     6.188    -0.001
   557   7 N        2.416    11.705    -0.001
   558   6 C        2.994     3.932    -0.000
   559   1 H        1.902    10.284    -0.017
   560   1 H        1.855    17.020    -0.029
   561   1 H        1.903    17.146    -0.029
   562   1 H        1.906    15.840    -0.027
   563   1 H        1.769    15.292    -0.026
   564   1 H        1.974     7.870    -0.013
   565   1 H        1.902    19.642    -0.033
   566   1 H        1.995     8.495    -0.014
   567   1 H        1.970     5.913    -0.010
   568   1 H        1.935     4.971    -0.008
   569   1 H        1.919     9.892    -0.017
   570   1 H        1.956    13.290    -0.022
   571   8 O        2.038     5.157    -0.001
   572   6 C        2.330     0.722    -0.000
   573   6 C        2.513     0.192    -0.000
   574   8 O        2.350     9.757    -0.001
   575   6 C        2.603     0.147    -0.000
   576   8 O        2.331     4.426    -0.000
   577   6 C        2.597     0.123    -0.000
   578   6 C        2.678     0.357    -0.000
   579   7 N        2.627     0.653    -0.000
   580   6 C        2.634     4.570    -0.000
   581   8 O        2.150    12.525    -0.001
   582   7 N        2.442     1.912    -0.000
   583   6 C        2.618     4.102    -0.000
   584   8 O        2.158     9.803    -0.001
   585   6 C        2.662     2.143    -0.000
   586   6 C        2.375     3.336    -0.000
   587   6 C        2.686     3.876    -0.000
   588   1 H        1.823    20.163    -0.034
   589   1 H        1.831    18.936    -0.032
   590   1 H        1.909    17.697    -0.030
   591   1 H        1.981     7.493    -0.013
   592   1 H        2.017     5.207    -0.009
   593   1 H        2.043     0.006    -0.000
   594   1 H        1.993     7.747    -0.013
   595   1 H        2.146     2.471    -0.004
   596   1 H        1.865    13.366    -0.022
   597   1 H        1.846    21.179    -0.036
   598   1 H        1.854    17.956    -0.030
   599   1 H        2.002     3.098    -0.005
   600   1 H        1.715    24.970    -0.042
   601  15 P        2.759     7.421    -0.001
   602   8 O        2.067    13.802    -0.002
   603   8 O        2.078    26.167    -0.003
   604   8 O        2.312     0.861    -0.000
   605   6 C        2.445     0.401    -0.000
   606   6 C        2.555     0.149    -0.000
   607   8 O        2.415     3.225    -0.000
   608   6 C        2.619     0.150    -0.000
   609   8 O        2.354     2.885    -0.000
   610   6 C        2.602     0.395    -0.000
   611   6 C        2.742     0.074    -0.000
   612   7 N        2.824     0.002    -0.000
   613   6 C        2.686     4.024    -0.000
   614   7 N        2.474    11.810    -0.001
   615   6 C        3.110     0.247    -0.000
   616   6 C        2.866     0.020    -0.000
   617   7 N        2.298     0.205    -0.000
   618   7 N        2.637     0.000     0.000
   619   6 C        2.730     0.283    -0.000
   620   7 N        2.523     5.982    -0.000
   621   6 C        3.172     0.004    -0.000
   622   1 H        1.896    11.197    -0.019
   623   1 H        1.878    13.473    -0.023
   624   1 H        1.931    16.620    -0.028
   625   1 H        1.983     9.427    -0.016
   626   1 H        2.005     8.706    -0.015
   627   1 H        2.025     2.271    -0.004
   628   1 H        2.058     6.060    -0.010
   629   1 H        1.971    10.352    -0.017
   630   1 H        1.972     1.186    -0.002
   631   1 H        1.922    11.863    -0.020
   632   1 H        2.061     5.538    -0.009
   633  15 P        2.775     5.088    -0.001
   634   8 O        2.072    11.573    -0.001
   635   8 O        2.100    21.976    -0.002
   636   8 O        2.323     0.182    -0.000
   637   6 C        2.451     0.360    -0.000
   638   6 C        2.557     0.208    -0.000
   639   8 O        2.394    10.478    -0.001
   640   6 C        2.624     0.241    -0.000
   641   8 O        2.356     4.204    -0.000
   642   6 C        2.625     0.545    -0.000
   643   6 C        2.757     0.072    -0.000
   644   7 N        2.868     0.188    -0.000
   645   6 C        2.753     0.644    -0.000
   646   7 N        2.560     4.365    -0.000
   647   6 C        3.146     0.052    -0.000
   648   6 C        2.816     0.002    -0.000
   649   8 O        2.299     2.729    -0.000
   650   7 N        2.651     0.000    -0.000
   651   6 C        2.773     1.597    -0.000
   652   7 N        2.266     2.698    -0.000
   653   7 N        2.591     5.603    -0.000
   654   6 C        3.198     2.684    -0.000
   655   1 H        1.889    13.010    -0.022
   656   1 H        1.888    13.468    -0.023
   657   1 H        1.927    17.303    -0.029
   658   1 H        1.972     9.579    -0.016
   659   1 H        2.028     6.043    -0.010
   660   1 H        2.035     1.029    -0.002
   661   1 H        2.054     4.038    -0.007
   662   1 H        2.017     3.843    -0.006
   663   1 H        2.302     0.000     0.000
   664   1 H        1.896    23.555    -0.040
   665   1 H        1.962     1.228    -0.002
   666  15 P        2.766     6.957    -0.001
   667   8 O        2.071    26.725    -0.003
   668   8 O        2.079    12.242    -0.001
   669   8 O        2.327     0.633    -0.000
   670   6 C        2.459     0.415    -0.000
   671   6 C        2.601     0.172    -0.000
   672   8 O        2.445     3.190    -0.000
   673   6 C        2.651     0.125    -0.000
   674   8 O        2.402     0.447    -0.000
   675   6 C        2.612     0.751    -0.000
   676   6 C        2.799     0.083    -0.000
   677   7 N        2.926     0.000     0.000
   678   6 C        2.776     0.341    -0.000
   679   7 N        2.557     7.800    -0.001
   680   6 C        3.267     0.000     0.000
   681   6 C        2.942     0.000     0.000
   682   7 N        2.324     0.360    -0.000
   683   7 N        2.662     0.000    -0.000
   684   6 C        2.745     0.196    -0.000
   685   7 N        2.581     4.631    -0.000
   686   6 C        3.312     0.000    -0.000
   687   1 H        1.903    11.802    -0.020
   688   1 H        1.883    12.568    -0.021
   689   1 H        1.970     9.012    -0.015
   690   1 H        1.988     7.762    -0.013
   691   1 H        2.014     6.222    -0.010
   692   1 H        2.011     2.782    -0.005
   693   1 H        2.116     1.713    -0.003
   694   1 H        2.014     6.703    -0.011
   695   1 H        2.002     1.234    -0.002
   696   1 H        1.938    15.658    -0.026
   697   1 H        2.023     6.403    -0.011
   698  15 P        2.775     7.205    -0.001
   699   8 O        2.100    18.787    -0.002
   700   8 O        2.068    16.356    -0.002
   701   8 O        2.275     4.672    -0.001
   702   6 C        2.434     0.524    -0.000
   703   6 C        2.571     0.119    -0.000
   704   8 O        2.427     2.917    -0.000
   705   6 C        2.623     0.014    -0.000
   706   8 O        2.340     4.046    -0.000
   707   6 C        2.607     0.072    -0.000
   708   6 C        2.740     0.141    -0.000
   709   7 N        2.739     0.000    -0.000
   710   6 C        2.759     0.033    -0.000
   711   8 O        2.208     8.112    -0.001
   712   7 N        2.598     0.000     0.000
   713   6 C        2.771     0.000    -0.000
   714   8 O        2.245     5.531    -0.001
   715   6 C        2.791     0.031    -0.000
   716   6 C        2.433     2.699    -0.000
   717   6 C        2.792     0.482    -0.000
   718   1 H        1.910    10.313    -0.017
   719   1 H        1.860    19.913    -0.033
   720   1 H        1.958    14.382    -0.024
   721   1 H        1.991     4.052    -0.007
   722   1 H        2.008     7.845    -0.013
   723   1 H        2.041     0.073    -0.000
   724   1 H        2.038     6.208    -0.010
   725   1 H        2.287     0.000    -0.000
   726   1 H        1.915     9.065    -0.015
   727   1 H        1.886    14.265    -0.024
   728   1 H        1.879    17.764    -0.030
   729   1 H        2.040     3.990    -0.007
   730  15 P        2.765     9.677    -0.002
   731   8 O        2.068    27.619    -0.003
   732   8 O        2.080    16.434    -0.002
   733   8 O        2.309     1.283    -0.000
   734   6 C        2.448     0.328    -0.000
   735   6 C        2.566     0.127    -0.000
   736   8 O        2.428     4.354    -0.000
   737   6 C        2.625     0.095    -0.000
   738   8 O        2.355     4.091    -0.000
   739   6 C        2.614     0.159    -0.000
   740   6 C        2.757     0.401    -0.000
   741   7 N        2.857     0.032    -0.000
   742   6 C        2.739     2.862    -0.000
   743   7 N        2.537     8.373    -0.001
   744   6 C        3.127     0.008    -0.000
   745   6 C        2.811     0.006    -0.000
   746   8 O        2.244     4.474    -0.000
   747   7 N        2.747     0.000     0.000
   748   6 C        2.926     0.000    -0.000
   749   7 N        2.362     0.191    -0.000
   750   7 N        2.672     2.240    -0.000
   751   6 C        3.237     0.057    -0.000
   752   1 H        1.901    11.889    -0.020
   753   1 H        1.883    15.063    -0.025
   754   1 H        1.944    15.194    -0.026
   755   1 H        1.978     9.338    -0.016
   756   1 H        2.008     9.439    -0.016
   757   1 H        2.033     0.803    -0.001
   758   1 H        2.073     4.067    -0.007
   759   1 H        2.010     6.161    -0.010
   760   1 H        2.373     0.000     0.000
   761   1 H        1.956    11.302    -0.019
   762   1 H        2.032     1.251    -0.002
   763  15 P        2.777     9.450    -0.002
   764   8 O        2.072    27.545    -0.003
   765   8 O        2.093    15.911    -0.002
   766   8 O        2.324     0.487    -0.000
   767   6 C        2.463     0.330    -0.000
   768   6 C        2.577     0.149    -0.000
   769   8 O        2.449     1.691    -0.000
   770   6 C        2.641     0.243    -0.000
   771   8 O        2.365     4.638    -0.001
   772   6 C        2.649     0.375    -0.000
   773   6 C        2.794     0.002    -0.000
   774   7 N        2.941     0.000    -0.000
   775   6 C        2.767     2.865    -0.000
   776   7 N        2.542     9.143    -0.001
   777   6 C        3.249     0.009    -0.000
   778   6 C        2.934     0.000    -0.000
   779   7 N        2.306     0.479    -0.000
   780   7 N        2.678     0.000     0.000
   781   6 C        2.771     0.132    -0.000
   782   7 N        2.583     3.674    -0.000
   783   6 C        3.304     0.000     0.000
   784   1 H        1.910     9.640    -0.016
   785   1 H        1.895    13.621    -0.023
   786   1 H        1.942    17.044    -0.029
   787   1 H        1.992     9.472    -0.016
   788   1 H        2.036     9.053    -0.015
   789   1 H        2.082     0.344    -0.001
   790   1 H        2.070     3.851    -0.006
   791   1 H        2.024     3.457    -0.006
   792   1 H        1.982     1.386    -0.002
   793   1 H        1.926    17.477    -0.029
   794   1 H        2.056     6.056    -0.010
   795  15 P        2.798     6.472    -0.001
   796   8 O        2.083    15.983    -0.002
   797   8 O        2.102    21.955    -0.002
   798   8 O        2.397     0.000     0.000
   799   6 C        2.484     0.468    -0.000
   800   6 C        2.577     0.257    -0.000
   801   8 O        2.417     9.504    -0.001
   802   6 C        2.628     0.273    -0.000
   803   8 O        2.340     4.523    -0.001
   804   6 C        2.624     0.247    -0.000
   805   6 C        2.788     0.012    -0.000
   806   7 N        2.902     0.059    -0.000
   807   6 C        2.758     0.354    -0.000
   808   7 N        2.551     4.755    -0.000
   809   6 C        3.241     0.000     0.000
   810   6 C        2.948     0.000     0.000
   811   7 N        2.348     0.113    -0.000
   812   7 N        2.642     0.000     0.000
   813   6 C        2.701     0.765    -0.000
   814   7 N        2.527     8.138    -0.001
   815   6 C        3.247     0.534    -0.000
   816   1 H        1.903    11.026    -0.019
   817   1 H        1.914     9.517    -0.016
   818   1 H        1.930    17.523    -0.029
   819   1 H        1.985     7.164    -0.012
   820   1 H        2.022     5.967    -0.010
   821   1 H        2.026     2.148    -0.004
   822   1 H        2.100     1.225    -0.002
   823   1 H        2.014     4.197    -0.007
   824   1 H        2.005     1.822    -0.003
   825   1 H        1.962    11.463    -0.019
   826   1 H        2.011     7.908    -0.013
   827  15 P        2.766     9.614    -0.002
   828   8 O        2.066    16.690    -0.002
   829   8 O        2.085    25.770    -0.003
   830   8 O        2.310     1.289    -0.000
   831   6 C        2.445     0.343    -0.000
   832   6 C        2.558     0.118    -0.000
   833   8 O        2.414     4.650    -0.001
   834   6 C        2.621     0.044    -0.000
   835   8 O        2.344     4.079    -0.000
   836   6 C        2.588     0.605    -0.000
   837   6 C        2.717     0.239    -0.000
   838   7 N        2.716     0.230    -0.000
   839   6 C        2.725     1.335    -0.000
   840   8 O        2.202    10.845    -0.001
   841   7 N        2.611     0.000    -0.000
   842   6 C        2.806     0.507    -0.000
   843   7 N        2.304     0.632    -0.000
   844   6 C        2.729     4.389    -0.000
   845   6 C        2.759     1.951    -0.000
   846   1 H        1.901    11.758    -0.020
   847   1 H        1.876    12.883    -0.022
   848   1 H        1.939    15.961    -0.027
   849   1 H        1.997     6.692    -0.011
   850   1 H        1.999    10.107    -0.017
   851   1 H        1.985     6.968    -0.012
   852   1 H        2.011     7.506    -0.013
   853   1 H        1.989     1.752    -0.003
   854   1 H        1.918    17.190    -0.029
   855   1 H        2.004    12.779    -0.021
   856   1 H        2.062     3.140    -0.005
   857  15 P        2.769     8.447    -0.002
   858   8 O        2.074    16.603    -0.002
   859   8 O        2.086    25.737    -0.003
   860   8 O        2.308     0.784    -0.000
   861   6 C        2.460     0.331    -0.000
   862   6 C        2.598     0.197    -0.000
   863   8 O        2.397    10.248    -0.001
   864   6 C        2.711     0.193    -0.000
   865   6 C        2.578     0.750    -0.000
   866   6 C        2.650     0.187    -0.000
   867   8 O        2.416     0.133    -0.000
   868   1 H        1.893    11.805    -0.020
   869   1 H        1.910     3.257    -0.005
   870   1 H        2.001     5.201    -0.009
   871   1 H        2.152     0.637    -0.001
   872   1 H        1.970    12.373    -0.021
   873   1 H        1.992     5.206    -0.009
   874   1 H        1.996     9.906    -0.017
   875  15 P        2.792     7.221    -0.001
   876   8 O        2.112     9.404    -0.001
   877   8 O        2.077    31.474    -0.003
   878   8 O        2.313     2.993    -0.000
   879   6 C        2.455     0.296    -0.000
   880   6 C        2.572     0.147    -0.000
   881   8 O        2.423     5.100    -0.001
   882   6 C        2.643     0.229    -0.000
   883   8 O        2.362     4.405    -0.000
   884   6 C        2.658     0.094    -0.000
   885   6 C        2.760     0.175    -0.000
   886   7 N        2.742     0.003    -0.000
   887   6 C        2.691     0.056    -0.000
   888   8 O        2.158    14.053    -0.002
   889   7 N        2.475     0.023    -0.000
   890   6 C        2.742     0.000     0.000
   891   8 O        2.212     7.408    -0.001
   892   6 C        2.844     0.000     0.000
   893   6 C        2.502     1.068    -0.000
   894   6 C        2.839     0.001    -0.000
   895   1 H        1.930     5.201    -0.009
   896   1 H        1.868    17.080    -0.029
   897   1 H        1.933    17.200    -0.029
   898   1 H        1.988     8.985    -0.015
   899   1 H        2.054     3.626    -0.006
   900   1 H        2.091     0.001    -0.000
   901   1 H        2.045     5.163    -0.009
   902   1 H        1.996    13.849    -0.023
   903   1 H        1.934     6.767    -0.011
   904   1 H        1.990     0.368    -0.001
   905   1 H        1.946     7.965    -0.013
   906   1 H        2.092     0.594    -0.001
   907  15 P        2.779     8.562    -0.002
   908   8 O        2.070    16.349    -0.002
   909   8 O        2.091    22.923    -0.003
   910   8 O        2.344     0.207    -0.000
   911   6 C        2.477     0.323    -0.000
   912   6 C        2.594     0.028    -0.000
   913   8 O        2.449     2.067    -0.000
   914   6 C        2.602     0.534    -0.000
   915   8 O        2.304     9.461    -0.001
   916   6 C        2.582     0.943    -0.000
   917   6 C        2.765     0.010    -0.000
   918   7 N        2.835     0.002    -0.000
   919   6 C        2.683     3.283    -0.000
   920   7 N        2.459    13.127    -0.001
   921   6 C        3.124     0.163    -0.000
   922   6 C        2.873     0.008    -0.000
   923   7 N        2.284     0.528    -0.000
   924   7 N        2.649     0.000     0.000
   925   6 C        2.744     0.199    -0.000
   926   7 N        2.555     5.315    -0.000
   927   6 C        3.207     0.000     0.000
   928   1 H        1.928     5.371    -0.009
   929   1 H        1.897    10.704    -0.018
   930   1 H        1.966     9.410    -0.016
   931   1 H        1.959    13.031    -0.022
   932   1 H        1.995     8.182    -0.014
   933   1 H        1.969     7.346    -0.012
   934   1 H        2.085     1.717    -0.003
   935   1 H        1.968     9.825    -0.017
   936   1 H        1.967     1.693    -0.003
   937   1 H        1.906    20.271    -0.034
   938   1 H        2.027     7.580    -0.013
   939  15 P        2.778     5.869    -0.001
   940   8 O        2.096    22.199    -0.002
   941   8 O        2.074    10.526    -0.001
   942   8 O        2.327     2.746    -0.000
   943   6 C        2.492     0.164    -0.000
   944   6 C        2.574     0.185    -0.000
   945   8 O        2.397    10.377    -0.001
   946   6 C        2.625     0.229    -0.000
   947   8 O        2.345     4.716    -0.001
   948   6 C        2.615     0.366    -0.000
   949   6 C        2.757     0.062    -0.000
   950   7 N        2.862     0.037    -0.000
   951   6 C        2.733     1.647    -0.000
   952   7 N        2.549     7.661    -0.001
   953   6 C        3.169     0.000    -0.000
   954   6 C        2.839     0.000    -0.000
   955   8 O        2.288     4.471    -0.000
   956   7 N        2.677     0.000     0.000
   957   6 C        2.805     0.488    -0.000
   958   7 N        2.277     1.440    -0.000
   959   7 N        2.614     5.246    -0.000
   960   6 C        3.239     0.532    -0.000
   961   1 H        1.924     9.887    -0.017
   962   1 H        1.959     1.646    -0.003
   963   1 H        1.934    15.718    -0.026
   964   1 H        1.976     9.692    -0.016
   965   1 H        2.016     8.626    -0.014
   966   1 H        2.015     2.320    -0.004
   967   1 H        2.076     2.347    -0.004
   968   1 H        1.988     9.133    -0.015
   969   1 H        2.320     0.000     0.000
   970   1 H        1.902    21.291    -0.036
   971   1 H        1.968     2.485    -0.004
   972  15 P        2.764     7.829    -0.002
   973   8 O        2.066    27.444    -0.003
   974   8 O        2.080    10.671    -0.001
   975   8 O        2.314     1.338    -0.000
   976   6 C        2.453     0.374    -0.000
   977   6 C        2.579     0.120    -0.000
   978   8 O        2.460     1.362    -0.000
   979   6 C        2.635     0.004    -0.000
   980   8 O        2.358     3.314    -0.000
   981   6 C        2.641     0.015    -0.000
   982   6 C        2.775     0.009    -0.000
   983   7 N        2.948     0.000     0.000
   984   6 C        2.793     0.575    -0.000
   985   7 N        2.580     5.698    -0.000
   986   6 C        3.326     0.000     0.000
   987   6 C        2.967     0.000     0.000
   988   7 N        2.327     0.340    -0.000
   989   7 N        2.665     0.000    -0.000
   990   6 C        2.739     0.283    -0.000
   991   7 N        2.567     4.294    -0.000
   992   6 C        3.334     0.000     0.000
   993   1 H        1.908    11.263    -0.019
   994   1 H        1.882    15.494    -0.026
   995   1 H        1.957    14.751    -0.025
   996   1 H        1.999     7.310    -0.012
   997   1 H        2.033     5.898    -0.010
   998   1 H        2.080     0.000    -0.000
   999   1 H        2.053     6.191    -0.010
  1000   1 H        2.018     6.783    -0.011
  1001   1 H        1.998     1.481    -0.002
  1002   1 H        1.941    14.338    -0.024
  1003   1 H        2.022     7.677    -0.013
  1004  15 P        2.769     7.099    -0.001
  1005   8 O        2.069    11.891    -0.001
  1006   8 O        2.088    24.939    -0.003
  1007   8 O        2.316     0.969    -0.000
  1008   6 C        2.453     0.356    -0.000
  1009   6 C        2.567     0.130    -0.000
  1010   8 O        2.419     4.716    -0.001
  1011   6 C        2.628     0.195    -0.000
  1012   8 O        2.356     3.885    -0.000
  1013   6 C        2.617     0.412    -0.000
  1014   6 C        2.753     0.247    -0.000
  1015   7 N        2.750     0.001    -0.000
  1016   6 C        2.800     0.011    -0.000
  1017   8 O        2.261     4.200    -0.000
  1018   7 N        2.673     0.000     0.000
  1019   6 C        2.842     0.001    -0.000
  1020   7 N        2.319     0.201    -0.000
  1021   6 C        2.724     2.791    -0.000
  1022   6 C        2.752     1.629    -0.000
  1023   1 H        1.905    11.324    -0.019
  1024   1 H        1.879    15.144    -0.025
  1025   1 H        1.936    16.394    -0.028
  1026   1 H        1.981     7.142    -0.012
  1027   1 H        2.008     8.958    -0.015
  1028   1 H        2.023     2.295    -0.004
  1029   1 H        2.044     3.412    -0.006
  1030   1 H        2.001     1.175    -0.002
  1031   1 H        1.921    16.624    -0.028
  1032   1 H        1.992    13.378    -0.022
  1033   1 H        2.050     4.082    -0.007
  1034  15 P        2.781     6.427    -0.001
  1035   8 O        2.073    27.077    -0.003
  1036   8 O        2.097    12.373    -0.001
  1037   8 O        2.341     0.033    -0.000
  1038   6 C        2.466     0.371    -0.000
  1039   6 C        2.570     0.230    -0.000
  1040   8 O        2.415     3.875    -0.000
  1041   6 C        2.633     0.258    -0.000
  1042   8 O        2.354     4.003    -0.000
  1043   6 C        2.644     0.012    -0.000
  1044   6 C        2.775     0.021    -0.000
  1045   7 N        2.903     0.000    -0.000
  1046   6 C        2.763     0.133    -0.000
  1047   7 N        2.549     5.547    -0.000
  1048   6 C        3.239     0.000    -0.000
  1049   6 C        2.953     0.000     0.000
  1050   7 N        2.343     0.061    -0.000
  1051   7 N        2.701     0.000     0.000
  1052   6 C        2.784     0.130    -0.000
  1053   7 N        2.592     2.781    -0.000
  1054   6 C        3.281     0.000     0.000
  1055   1 H        1.898    10.346    -0.017
  1056   1 H        1.901    12.935    -0.022
  1057   1 H        1.932    17.226    -0.029
  1058   1 H        1.985     6.625    -0.011
  1059   1 H        2.046     2.602    -0.004
  1060   1 H        2.054     0.038    -0.000
  1061   1 H        2.071     2.721    -0.005
  1062   1 H        2.023     1.538    -0.003
  1063   1 H        2.010     0.865    -0.001
  1064   1 H        1.968     8.834    -0.015
  1065   1 H        2.053     6.776    -0.011
  1066  15 P        2.770     9.976    -0.002
  1067   8 O        2.067    28.364    -0.003
  1068   8 O        2.088    15.889    -0.002
  1069   8 O        2.325     0.560    -0.000
  1070   6 C        2.458     0.411    -0.000
  1071   6 C        2.572     0.161    -0.000
  1072   8 O        2.444     2.428    -0.000
  1073   6 C        2.630     0.122    -0.000
  1074   8 O        2.346     4.092    -0.000
  1075   6 C        2.597     0.247    -0.000
  1076   6 C        2.758     0.049    -0.000
  1077   7 N        2.758     0.000     0.000
  1078   6 C        2.768     0.000    -0.000
  1079   8 O        2.215     5.717    -0.001
  1080   7 N        2.600     0.000     0.000
  1081   6 C        2.757     0.000     0.000
  1082   8 O        2.223     6.553    -0.001
  1083   6 C        2.802     0.120    -0.000
  1084   6 C        2.438     2.623    -0.000
  1085   6 C        2.814     0.682    -0.000
  1086   1 H        1.908    10.878    -0.018
  1087   1 H        1.883    14.952    -0.025
  1088   1 H        1.937    17.080    -0.029
  1089   1 H        1.992     5.957    -0.010
  1090   1 H        2.004     7.888    -0.013
  1091   1 H        2.002     0.673    -0.001
  1092   1 H        2.048     5.143    -0.009
  1093   1 H        2.312     0.000     0.000
  1094   1 H        1.874    17.974    -0.030
  1095   1 H        1.923     9.391    -0.016
  1096   1 H        1.898    11.611    -0.020
  1097   1 H        2.066     2.714    -0.005
  1098  15 P        2.759     9.461    -0.002
  1099   8 O        2.069    26.645    -0.003
  1100   8 O        2.080    15.498    -0.002
  1101   8 O        2.305     0.190    -0.000
  1102   6 C        2.431     0.418    -0.000
  1103   6 C        2.525     0.220    -0.000
  1104   8 O        2.379     6.069    -0.001
  1105   6 C        2.484     0.421    -0.000
  1106   8 O        2.058    13.746    -0.002
  1107   6 C        2.523     0.806    -0.000
  1108   6 C        2.680     0.104    -0.000
  1109   7 N        2.744     0.374    -0.000
  1110   6 C        2.681     4.616    -0.000
  1111   7 N        2.495     8.017    -0.001
  1112   6 C        3.050     3.217    -0.000
  1113   6 C        2.795     3.595    -0.000
  1114   7 N        2.263     3.838    -0.000
  1115   7 N        2.533     2.588    -0.000
  1116   6 C        2.614     6.019    -0.001
  1117   7 N        2.431    11.013    -0.001
  1118   6 C        3.030     2.843    -0.000
  1119   1 H        1.884    13.299    -0.022
  1120   1 H        1.873    15.040    -0.025
  1121   1 H        1.909    17.389    -0.029
  1122   1 H        1.911    14.577    -0.024
  1123   1 H        1.732    22.317    -0.037
  1124   1 H        1.982     4.889    -0.008
  1125   1 H        1.914    16.456    -0.028
  1126   1 H        2.012    10.398    -0.017
  1127   1 H        1.978     9.111    -0.015
  1128   1 H        1.940     5.141    -0.009
  1129   1 H        1.910    12.765    -0.021
  1130   1 H        1.962    12.789    -0.021
  1131   1 H        1.756    23.634    -0.040
  1132   1 H        1.754    26.729    -0.045
  1133   1 H        1.756    25.375    -0.043
  1134   1 H        1.762    22.344    -0.038
  1135   1 H        1.791    15.988    -0.027
  1136   1 H        1.814    12.768    -0.021
  1137   1 H        1.792    14.451    -0.024
  1138   1 H        1.773    17.783    -0.030
  1139   1 H        1.782    16.062    -0.027
  1140   1 H        1.800    12.156    -0.020
  1141   1 H        1.771    18.221    -0.031
  1142   1 H        1.753    26.762    -0.045
  1143   1 H        1.754    26.384    -0.044
  1144   1 H        1.752    26.855    -0.045
  1145   1 H        1.782    19.320    -0.032
  1146   1 H        1.806    13.882    -0.023
  1147   1 H        1.788    16.453    -0.028
  1148   1 H        1.751    26.458    -0.044
  1149   1 H        1.835     7.116    -0.012
  1150   1 H        1.766    20.636    -0.035
  1151   1 H        1.779    17.168    -0.029
  1152   1 H        1.778    16.771    -0.028
  1153   1 H        1.777    17.239    -0.029
  1154   1 H        1.777    17.939    -0.030
  1155   1 H        1.774    17.937    -0.030
  1156   1 H        1.751    26.732    -0.045
  1157   1 H        1.754    26.870    -0.045
  1158   1 H        1.752    26.874    -0.045
  1159   1 H        1.754    26.765    -0.045
  1160   1 H        1.756    26.597    -0.045
  1161   1 H        1.768    20.259    -0.034
  1162   1 H        1.771    18.152    -0.030
  1163   1 H        1.780    16.839    -0.028
  1164   1 H        1.787    15.801    -0.027

 total SASA / Å² :     6948.326

     #   Z          covCN         q      C6AA      α(0)
     1   8 O        1.654    -0.514    23.206     6.503
     2   6 C        3.673     0.057    19.844     6.384
     3   6 C        3.787     0.097    18.997     6.208
     4   8 O        1.701    -0.323    19.398     5.946
     5   6 C        3.920     0.113    18.679     6.143
     6   8 O        1.655    -0.361    20.118     6.055
     7   6 C        3.819    -0.086    22.130     6.695
     8   6 C        3.733     0.172    17.927     6.043
     9   7 N        2.737    -0.068    22.553     7.053
    10   6 C        2.701     0.323    21.507     7.590
    11   8 O        0.859    -0.528    24.403     6.623
    12   7 N        2.696    -0.180    24.894     7.410
    13   6 C        2.761     0.277    22.322     7.737
    14   8 O        0.859    -0.470    23.137     6.449
    15   6 C        2.950    -0.028    28.698     8.786
    16   6 C        3.755    -0.136    23.172     6.864
    17   6 C        2.847     0.025    27.441     8.585
    18   1 H        0.925     0.069     2.093     2.263
    19   1 H        0.925     0.051     2.303     2.373
    20   1 H        0.924     0.072     2.061     2.245
    21   1 H        0.925     0.074     2.046     2.237
    22   1 H        0.925     0.091     1.873     2.140
    23   1 H        0.925     0.064     2.148     2.292
    24   1 H        0.925     0.067     2.123     2.279
    25   1 H        0.860     0.245     0.903     1.488
    26   1 H        0.924     0.081     1.966     2.193
    27   1 H        0.924     0.087     1.908     2.160
    28   1 H        0.925     0.086     1.918     2.166
    29   1 H        0.926     0.124     1.585     1.969
    30   1 H        0.805     0.381     0.520     1.133
    31  15 P        3.666     0.760   130.670    20.534
    32   8 O        1.614    -0.405    20.968     6.180
    33   8 O        0.808    -0.600    26.153     6.855
    34   8 O        1.656    -0.336    19.651     5.984
    35   6 C        3.850     0.055    19.620     6.300
    36   6 C        3.807     0.086    19.153     6.230
    37   8 O        1.703    -0.329    19.503     5.963
    38   6 C        3.956     0.109    18.733     6.150
    39   8 O        1.659    -0.354    19.983     6.035
    40   6 C        3.829    -0.089    22.164     6.699
    41   6 C        3.765     0.177    17.809     6.015
    42   7 N        2.829    -0.076    22.705     7.077
    43   6 C        3.173     0.092    25.586     8.262
    44   7 N        1.862    -0.278    28.052     7.851
    45   6 C        3.235     0.006    27.027     8.436
    46   6 C        2.901     0.173    24.282     8.080
    47   7 N        2.670    -0.236    26.183     7.600
    48   7 N        1.867    -0.335    29.548     8.057
    49   6 C        2.928     0.154    24.661     8.144
    50   7 N        1.827    -0.355    30.083     8.127
    51   6 C        3.130     0.137    24.827     8.158
    52   1 H        0.924     0.101     1.777     2.085
    53   1 H        0.924     0.080     1.980     2.201
    54   1 H        0.925     0.078     1.999     2.211
    55   1 H        0.924     0.072     2.069     2.249
    56   1 H        0.924     0.091     1.868     2.137
    57   1 H        0.925     0.091     1.872     2.139
    58   1 H        0.925     0.061     2.192     2.315
    59   1 H        0.926     0.085     1.928     2.172
    60   1 H        0.860     0.249     0.885     1.474
    61   1 H        0.860     0.243     0.910     1.494
    62   1 H        0.926     0.021     2.725     2.581
    63  15 P        3.726     0.763   130.568    20.526
    64   8 O        1.614    -0.383    20.551     6.119
    65   8 O        0.808    -0.595    26.032     6.839
    66   8 O        1.656    -0.320    19.365     5.940
    67   6 C        3.877     0.052    19.651     6.303
    68   6 C        3.825     0.095    19.004     6.203
    69   8 O        1.702    -0.324    19.414     5.949
    70   6 C        3.908     0.109    18.735     6.152
    71   8 O        1.657    -0.345    19.812     6.009
    72   6 C        3.822    -0.089    22.186     6.703
    73   6 C        3.767     0.176    17.820     6.016
    74   7 N        2.737    -0.071    22.618     7.063
    75   6 C        2.700     0.327    21.443     7.579
    76   8 O        0.859    -0.512    24.048     6.575
    77   7 N        2.698    -0.188    25.076     7.437
    78   6 C        2.760     0.279    22.277     7.729
    79   8 O        0.859    -0.449    22.690     6.386
    80   6 C        2.949    -0.030    28.737     8.792
    81   6 C        3.752    -0.134    23.148     6.861
    82   6 C        2.844     0.021    27.523     8.598
    83   1 H        0.924     0.091     1.872     2.140
    84   1 H        0.925     0.110     1.696     2.037
    85   1 H        0.924     0.079     1.989     2.205
    86   1 H        0.925     0.073     2.051     2.239
    87   1 H        0.925     0.080     1.982     2.202
    88   1 H        0.925     0.072     2.060     2.244
    89   1 H        0.924     0.065     2.147     2.291
    90   1 H        0.860     0.234     0.949     1.526
    91   1 H        0.925     0.096     1.817     2.108
    92   1 H        0.925     0.088     1.899     2.155
    93   1 H        0.925     0.078     1.999     2.211
    94   1 H        0.926     0.112     1.683     2.029
    95  15 P        3.692     0.762   130.594    20.528
    96   8 O        1.614    -0.397    20.820     6.158
    97   8 O        0.808    -0.582    25.710     6.797
    98   8 O        1.657    -0.354    19.970     6.033
    99   6 C        3.879     0.056    19.600     6.294
   100   6 C        3.800     0.095    19.009     6.208
   101   8 O        1.702    -0.336    19.640     5.983
   102   6 C        3.919     0.110    18.719     6.149
   103   8 O        1.657    -0.344    19.797     6.006
   104   6 C        3.826    -0.089    22.185     6.702
   105   6 C        3.739     0.173    17.902     6.037
   106   7 N        2.824    -0.064    22.484     7.043
   107   6 C        3.148     0.090    25.736     8.299
   108   7 N        1.870    -0.292    28.417     7.902
   109   6 C        3.205    -0.011    27.676     8.569
   110   6 C        2.768     0.264    22.545     7.776
   111   8 O        0.859    -0.488    23.517     6.502
   112   7 N        2.711    -0.195    25.239     7.461
   113   6 C        2.841     0.239    23.012     7.861
   114   7 N        2.664    -0.268    26.942     7.709
   115   7 N        1.846    -0.367    30.426     8.175
   116   6 C        3.092     0.120    25.272     8.240
   117   1 H        0.924     0.085     1.925     2.170
   118   1 H        0.924     0.089     1.891     2.150
   119   1 H        0.924     0.090     1.881     2.145
   120   1 H        0.924     0.072     2.065     2.247
   121   1 H        0.924     0.081     1.970     2.195
   122   1 H        0.925     0.080     1.978     2.199
   123   1 H        0.924     0.074     2.047     2.238
   124   1 H        0.926     0.063     2.167     2.302
   125   1 H        0.860     0.237     0.937     1.517
   126   1 H        0.860     0.251     0.879     1.469
[...]
   889   7 N    3.525 --   887 C    1.146   890 C    1.143   902 H    0.903
                           891 O    0.136   888 O    0.128
   890   6 C    3.936 --   891 O    1.616   889 N    1.143   892 C    1.084
   891   8 O    1.936 --   890 C    1.616   889 N    0.136
   892   6 C    3.979 --   894 C    1.655   890 C    1.084   893 C    1.021
   893   6 C    3.982 --   892 C    1.021   903 H    0.976   904 H    0.967
                           905 H    0.964
   894   6 C    3.948 --   892 C    1.655   886 N    1.158   906 H    0.945
   895   1 H    0.991 --   879 C    0.953
   896   1 H    0.989 --   879 C    0.961
   897   1 H    0.988 --   880 C    0.948
   898   1 H    0.993 --   882 C    0.958
   899   1 H    0.993 --   884 C    0.966
   900   1 H    0.997 --   884 C    0.970
   901   1 H    0.994 --   885 C    0.950
   902   1 H    0.937 --   889 N    0.903
   903   1 H    0.992 --   893 C    0.976
   904   1 H    0.993 --   893 C    0.967
   905   1 H    0.993 --   893 C    0.964
   906   1 H    0.985 --   894 C    0.945
   907  15 P    5.408 --   909 O    1.763   908 O    1.368   883 O    1.111
                           910 O    1.097
   908   8 O    2.273 --   907 P    1.368  1141 H    0.741
   909   8 O    1.971 --   907 P    1.763
   910   8 O    2.235 --   907 P    1.097   911 C    0.940
   911   6 C    3.927 --   912 C    0.980   928 H    0.965   929 H    0.961
                           910 O    0.940
   912   6 C    3.940 --   911 C    0.980   914 C    0.972   913 O    0.966
                           930 H    0.948
   913   8 O    2.073 --   917 C    0.967   912 C    0.966
   914   6 C    3.924 --   916 C    0.991   912 C    0.972   931 H    0.953
                           915 O    0.932
   915   8 O    2.272 --   939 P    1.120   914 C    0.932
   916   6 C    3.984 --   914 C    0.991   917 C    0.985   933 H    0.967
                           932 H    0.962
   917   6 C    3.930 --   916 C    0.985   913 O    0.967   934 H    0.954
                           918 N    0.953
   918   7 N    3.587 --   919 C    1.201   927 C    1.159   917 C    0.953
                           920 N    0.112
   919   6 C    3.949 --   920 N    1.616   918 N    1.201   935 H    0.953
   920   7 N    3.008 --   919 C    1.616   921 C    1.175   918 N    0.112
   921   6 C    3.970 --   927 C    1.344   922 C    1.184   920 N    1.175
   922   6 C    3.973 --   923 N    1.358   924 N    1.296   921 C    1.184
   923   7 N    3.441 --   922 C    1.358   937 H    0.918   936 H    0.890
   924   7 N    3.057 --   925 C    1.403   922 C    1.296
   925   6 C    3.973 --   926 N    1.468   924 N    1.403   938 H    0.958
   926   7 N    2.998 --   925 C    1.468   927 C    1.248
   927   6 C    3.960 --   921 C    1.344   926 N    1.248   918 N    1.159
   928   1 H    0.995 --   911 C    0.965
   929   1 H    0.993 --   911 C    0.961
   930   1 H    0.990 --   912 C    0.948
   931   1 H    0.988 --   914 C    0.953
   932   1 H    0.990 --   916 C    0.962
   933   1 H    0.993 --   916 C    0.967
   934   1 H    0.996 --   917 C    0.954
   935   1 H    0.993 --   919 C    0.953
   936   1 H    0.937 --   923 N    0.890
   937   1 H    0.935 --   923 N    0.918
   938   1 H    0.999 --   925 C    0.958
   939  15 P    5.446 --   940 O    1.734   941 O    1.391   942 O    1.137
                           915 O    1.120
   940   8 O    1.948 --   939 P    1.734
   941   8 O    2.279 --   939 P    1.391  1142 H    0.724
   942   8 O    2.265 --   939 P    1.137   943 C    0.936
   943   6 C    3.920 --   944 C    0.978   961 H    0.964   962 H    0.961
                           942 O    0.936
   944   6 C    3.944 --   943 C    0.978   946 C    0.970   945 O    0.969
                           963 H    0.953
   945   8 O    2.077 --   944 C    0.969   949 C    0.969
   946   6 C    3.931 --   948 C    0.991   944 C    0.970   964 H    0.958
                           947 O    0.938
   947   8 O    2.263 --   972 P    1.114   946 C    0.938
   948   6 C    3.985 --   946 C    0.991   949 C    0.983   965 H    0.965
                           966 H    0.963
   949   6 C    3.927 --   948 C    0.983   945 O    0.969   950 N    0.955
                           967 H    0.953
   950   7 N    3.583 --   951 C    1.189   960 C    1.163   949 C    0.955
                           952 N    0.113
   951   6 C    3.941 --   952 N    1.612   950 N    1.189   968 H    0.954
   952   7 N    3.014 --   951 C    1.612   953 C    1.192   950 N    0.113
   953   6 C    3.963 --   960 C    1.362   952 N    1.192   954 C    1.125
   954   6 C    3.948 --   955 O    1.571   956 N    1.133   953 C    1.125
   955   8 O    1.954 --   954 C    1.571   956 N    0.133
   956   7 N    3.512 --   957 C    1.169   954 C    1.133   969 H    0.864
                           955 O    0.133
   957   6 C    3.966 --   959 N    1.359   958 N    1.348   956 N    1.169
   958   7 N    3.406 --   957 C    1.348   970 H    0.909   971 H    0.886
                           959 N    0.108
   959   7 N    2.949 --   957 C    1.359   960 C    1.230   958 N    0.108
   960   6 C    3.961 --   953 C    1.362   959 N    1.230   950 N    1.163
   961   1 H    0.992 --   943 C    0.964
   962   1 H    0.995 --   943 C    0.961
   963   1 H    0.991 --   944 C    0.953
   964   1 H    0.993 --   946 C    0.958
   965   1 H    0.992 --   948 C    0.965
   966   1 H    0.992 --   948 C    0.963
   967   1 H    0.993 --   949 C    0.953
   968   1 H    0.994 --   951 C    0.954
   969   1 H    0.945 --   956 N    0.864
   970   1 H    0.928 --   958 N    0.909
   971   1 H    0.942 --   958 N    0.886
   972  15 P    5.401 --   973 O    1.741   974 O    1.377   947 O    1.114
                           975 O    1.101
   973   8 O    1.950 --   972 P    1.741
   974   8 O    2.265 --   972 P    1.377  1143 H    0.724
   975   8 O    2.241 --   972 P    1.101   976 C    0.940
   976   6 C    3.923 --   977 C    0.991   993 H    0.965   994 H    0.965
                           975 O    0.940
   977   6 C    3.943 --   976 C    0.991   979 C    0.965   978 O    0.960
                           995 H    0.950
   978   8 O    2.068 --   982 C    0.974   977 C    0.960
   979   6 C    3.928 --   981 C    0.993   977 C    0.965   996 H    0.961
                           980 O    0.940
   980   8 O    2.246 --  1004 P    1.095   979 C    0.940
   981   6 C    3.987 --   979 C    0.993   982 C    0.974   997 H    0.971
                           998 H    0.963
   982   6 C    3.933 --   978 O    0.974   981 C    0.974   983 N    0.962
                           999 H    0.955
   983   7 N    3.596 --   984 C    1.204   992 C    1.164   982 C    0.962
                           985 N    0.112
   984   6 C    3.948 --   985 N    1.601   983 N    1.204  1000 H    0.955
   985   7 N    3.005 --   984 C    1.601   986 C    1.186   983 N    0.112
   986   6 C    3.970 --   992 C    1.330   985 N    1.186   987 C    1.183
   987   6 C    3.971 --   988 N    1.369   989 N    1.282   986 C    1.183
   988   7 N    3.463 --   987 C    1.369  1002 H    0.922  1001 H    0.889
   989   7 N    3.073 --   990 C    1.426   987 C    1.282
   990   6 C    3.970 --   991 N    1.445   989 N    1.426  1003 H    0.959
   991   7 N    2.993 --   990 C    1.445   992 C    1.257
   992   6 C    3.960 --   986 C    1.330   991 N    1.257   983 N    1.164
   993   1 H    0.994 --   976 C    0.965
   994   1 H    0.992 --   976 C    0.965
   995   1 H    0.993 --   977 C    0.950
   996   1 H    0.994 --   979 C    0.961
   997   1 H    0.993 --   981 C    0.971
   998   1 H    0.993 --   981 C    0.963
   999   1 H    0.996 --   982 C    0.955
  1000   1 H    0.993 --   984 C    0.955
  1001   1 H    0.941 --   988 N    0.889
  1002   1 H    0.940 --   988 N    0.922
  1003   1 H    0.999 --   990 C    0.959
  1004  15 P    5.421 --  1006 O    1.746  1005 O    1.390  1007 O    1.131
                           980 O    1.095
  1005   8 O    2.279 --  1004 P    1.390  1144 H    0.725
  1006   8 O    1.954 --  1004 P    1.746
  1007   8 O    2.258 --  1004 P    1.131  1008 C    0.937
  1008   6 C    3.922 --  1009 C    0.986  1024 H    0.967  1023 H    0.966
                          1007 O    0.937
  1009   6 C    3.943 --  1008 C    0.986  1011 C    0.969  1010 O    0.963
                          1025 H    0.951
  1010   8 O    2.060 --  1014 C    0.965  1009 C    0.963
  1011   6 C    3.928 --  1013 C    0.993  1009 C    0.969  1026 H    0.957
                          1012 O    0.930
  1012   8 O    2.230 --  1034 P    1.089  1011 C    0.930
  1013   6 C    3.984 --  1011 C    0.993  1014 C    0.979  1028 H    0.964
                          1027 H    0.961
  1014   6 C    3.933 --  1013 C    0.979  1010 O    0.965  1015 N    0.964
                          1029 H    0.956
  1015   7 N    3.572 --  1022 C    1.202  1016 C    1.068  1014 C    0.964
                          1017 O    0.111
  1016   6 C    3.951 --  1017 O    1.535  1018 N    1.252  1015 N    1.068
  1017   8 O    1.914 --  1016 C    1.535  1018 N    0.121  1015 N    0.111
  1018   7 N    3.039 --  1019 C    1.342  1016 C    1.252  1017 O    0.121
                          1020 N    0.112
  1019   6 C    3.967 --  1020 N    1.391  1018 N    1.342  1021 C    1.144
  1020   7 N    3.467 --  1019 C    1.391  1031 H    0.912  1030 H    0.887
                          1018 N    0.112
  1021   6 C    3.974 --  1022 C    1.658  1019 C    1.144  1032 H    0.957
  1022   6 C    3.955 --  1021 C    1.658  1015 N    1.202  1033 H    0.947
  1023   1 H    0.993 --  1008 C    0.966
  1024   1 H    0.992 --  1008 C    0.967
  1025   1 H    0.991 --  1009 C    0.951
  1026   1 H    0.993 --  1011 C    0.957
  1027   1 H    0.990 --  1013 C    0.961
  1028   1 H    0.993 --  1013 C    0.964
  1029   1 H    0.996 --  1014 C    0.956
  1030   1 H    0.938 --  1020 N    0.887
  1031   1 H    0.932 --  1020 N    0.912
  1032   1 H    0.989 --  1021 C    0.957
  1033   1 H    0.989 --  1022 C    0.947
  1034  15 P    5.378 --  1035 O    1.717  1036 O    1.362  1037 O    1.129
                          1012 O    1.089
  1035   8 O    1.934 --  1034 P    1.717
  1036   8 O    2.261 --  1034 P    1.362  1145 H    0.736
  1037   8 O    2.254 --  1034 P    1.129  1038 C    0.931
  1038   6 C    3.915 --  1039 C    0.984  1055 H    0.967  1056 H    0.965
                          1037 O    0.931
  1039   6 C    3.945 --  1038 C    0.984  1041 C    0.970  1040 O    0.964
                          1057 H    0.949
  1040   8 O    2.068 --  1044 C    0.967  1039 C    0.964
  1041   6 C    3.930 --  1043 C    0.992  1039 C    0.970  1058 H    0.953
                          1042 O    0.932
  1042   8 O    2.241 --  1066 P    1.101  1041 C    0.932
  1043   6 C    3.984 --  1041 C    0.992  1044 C    0.984  1059 H    0.961
                          1060 H    0.957
  1044   6 C    3.930 --  1043 C    0.984  1040 O    0.967  1045 N    0.958
                          1061 H    0.954
  1045   7 N    3.598 --  1046 C    1.211  1054 C    1.159  1044 C    0.958
                          1047 N    0.112
  1046   6 C    3.949 --  1047 N    1.600  1045 N    1.211  1062 H    0.950
  1047   7 N    3.005 --  1046 C    1.600  1048 C    1.186  1045 N    0.112
  1048   6 C    3.970 --  1054 C    1.338  1047 N    1.186  1049 C    1.179
  1049   6 C    3.971 --  1050 N    1.353  1051 N    1.301  1048 C    1.179
  1050   7 N    3.446 --  1049 C    1.353  1064 H    0.922  1063 H    0.894
  1051   7 N    3.060 --  1052 C    1.411  1049 C    1.301
  1052   6 C    3.973 --  1053 N    1.461  1051 N    1.411  1065 H    0.959
  1053   7 N    3.002 --  1052 C    1.461  1054 C    1.255
  1054   6 C    3.961 --  1048 C    1.338  1053 N    1.255  1045 N    1.159
  1055   1 H    0.993 --  1038 C    0.967
  1056   1 H    0.993 --  1038 C    0.965
  1057   1 H    0.989 --  1039 C    0.949
  1058   1 H    0.994 --  1041 C    0.953
  1059   1 H    0.989 --  1043 C    0.961
  1060   1 H    0.991 --  1043 C    0.957
  1061   1 H    0.994 --  1044 C    0.954
  1062   1 H    0.993 --  1046 C    0.950
  1063   1 H    0.941 --  1050 N    0.894
  1064   1 H    0.941 --  1050 N    0.922
  1065   1 H    0.999 --  1052 C    0.959
  1066  15 P    5.408 --  1067 O    1.759  1068 O    1.384  1042 O    1.101
                          1069 O    1.098
  1067   8 O    1.966 --  1066 P    1.759
  1068   8 O    2.290 --  1066 P    1.384  1146 H    0.746
  1069   8 O    2.240 --  1066 P    1.098  1070 C    0.941
  1070   6 C    3.924 --  1071 C    0.988  1087 H    0.966  1086 H    0.966
                          1069 O    0.941
  1071   6 C    3.944 --  1070 C    0.988  1073 C    0.965  1072 O    0.961
                          1088 H    0.952
  1072   8 O    2.062 --  1076 C    0.969  1071 C    0.961
  1073   6 C    3.925 --  1075 C    0.990  1071 C    0.965  1089 H    0.954
                          1074 O    0.931
  1074   8 O    2.254 --  1098 P    1.112  1073 C    0.931
  1075   6 C    3.983 --  1073 C    0.990  1076 C    0.984  1091 H    0.967
                          1090 H    0.960
  1076   6 C    3.930 --  1075 C    0.984  1072 O    0.969  1092 H    0.955
                          1077 N    0.952
  1077   7 N    3.569 --  1085 C    1.155  1078 C    1.122  1076 C    0.952
                          1079 O    0.131
  1078   6 C    3.958 --  1079 O    1.585  1080 N    1.166  1077 N    1.122
  1079   8 O    1.926 --  1078 C    1.585  1077 N    0.131  1080 N    0.128
  1080   7 N    3.530 --  1078 C    1.166  1081 C    1.140  1093 H    0.860
                          1082 O    0.135  1079 O    0.128
  1081   6 C    3.935 --  1082 O    1.617  1080 N    1.140  1083 C    1.081
  1082   8 O    1.980 --  1081 C    1.617  1080 N    0.135
  1083   6 C    3.976 --  1085 C    1.651  1081 C    1.081  1084 C    1.021
  1084   6 C    3.976 --  1083 C    1.021  1096 H    0.979  1095 H    0.965
                          1094 H    0.961
  1085   6 C    3.940 --  1083 C    1.651  1077 N    1.155  1097 H    0.940
  1086   1 H    0.993 --  1070 C    0.966
  1087   1 H    0.993 --  1070 C    0.966
  1088   1 H    0.992 --  1071 C    0.952
  1089   1 H    0.993 --  1073 C    0.954
  1090   1 H    0.988 --  1075 C    0.960
  1091   1 H    0.994 --  1075 C    0.967
  1092   1 H    0.996 --  1076 C    0.955
  1093   1 H    0.943 --  1080 N    0.860
  1094   1 H    0.988 --  1084 C    0.961
  1095   1 H    0.992 --  1084 C    0.965
  1096   1 H    0.992 --  1084 C    0.979
  1097   1 H    0.985 --  1085 C    0.940
  1098  15 P    5.445 --  1099 O    1.781  1100 O    1.386  1074 O    1.112
                          1101 O    1.105
  1099   8 O    1.977 --  1098 P    1.781
  1100   8 O    2.287 --  1098 P    1.386  1147 H    0.743
  1101   8 O    2.246 --  1098 P    1.105  1102 C    0.938
  1102   6 C    3.924 --  1103 C    0.986  1119 H    0.971  1120 H    0.970
                          1101 O    0.938
  1103   6 C    3.941 --  1102 C    0.986  1105 C    0.968  1104 O    0.960
                          1121 H    0.954
  1104   8 O    2.054 --  1108 C    0.963  1103 C    0.960
  1105   6 C    3.960 --  1106 O    0.994  1107 C    0.987  1103 C    0.968
                          1122 H    0.961
  1106   8 O    1.906 --  1105 C    0.994  1123 H    0.841
  1107   6 C    3.988 --  1105 C    0.987  1108 C    0.984  1125 H    0.971
                          1124 H    0.967
  1108   6 C    3.928 --  1107 C    0.984  1104 O    0.963  1109 N    0.960
                          1126 H    0.951
  1109   7 N    3.590 --  1110 C    1.200  1118 C    1.164  1108 C    0.960
                          1111 N    0.114
  1110   6 C    3.947 --  1111 N    1.610  1109 N    1.200  1127 H    0.955
  1111   7 N    3.003 --  1110 C    1.610  1112 C    1.176  1109 N    0.114
  1112   6 C    3.968 --  1118 C    1.334  1113 C    1.190  1111 N    1.176
  1113   6 C    3.974 --  1114 N    1.367  1115 N    1.283  1112 C    1.190
  1114   7 N    3.452 --  1113 C    1.367  1129 H    0.922  1128 H    0.881
  1115   7 N    3.063 --  1116 C    1.419  1113 C    1.283
  1116   6 C    3.971 --  1117 N    1.456  1115 N    1.419  1130 H    0.958
  1117   7 N    2.999 --  1116 C    1.456  1118 C    1.255
  1118   6 C    3.959 --  1112 C    1.334  1117 N    1.255  1109 N    1.164
  1119   1 H    0.996 --  1102 C    0.971
  1120   1 H    0.994 --  1102 C    0.970
  1121   1 H    0.993 --  1103 C    0.954
  1122   1 H    0.996 --  1105 C    0.961
  1123   1 H    0.855 --  1106 O    0.841
  1124   1 H    0.995 --  1107 C    0.967
  1125   1 H    0.993 --  1107 C    0.971
  1126   1 H    0.996 --  1108 C    0.951
  1127   1 H    0.993 --  1110 C    0.955
  1128   1 H    0.932 --  1114 N    0.881
  1129   1 H    0.942 --  1114 N    0.922
  1130   1 H    0.999 --  1116 C    0.958
  1131   1 H    0.764 --   602 O    0.727
  1132   1 H    0.754 --   634 O    0.720
  1133   1 H    0.758 --   668 O    0.723
  1134   1 H    0.772 --   700 O    0.736
  1135   1 H    0.788 --   732 O    0.742
  1136   1 H    0.795 --   765 O    0.751
  1137   1 H    0.792 --   796 O    0.739
  1138   1 H    0.782 --   828 O    0.742
  1139   1 H    0.784 --   858 O    0.736
  1140   1 H    0.793 --   876 O    0.751
  1141   1 H    0.781 --   908 O    0.741
  1142   1 H    0.758 --   941 O    0.724
  1143   1 H    0.758 --   974 O    0.724
  1144   1 H    0.759 --  1005 O    0.725
  1145   1 H    0.776 --  1036 O    0.736
  1146   1 H    0.791 --  1068 O    0.746
  1147   1 H    0.783 --  1100 O    0.743
  1148   1 H    0.759 --    32 O    0.724
  1149   1 H    0.816 --    64 O    0.761
  1150   1 H    0.771 --    96 O    0.734
  1151   1 H    0.786 --   129 O    0.740
  1152   1 H    0.787 --   161 O    0.744
  1153   1 H    0.783 --   191 O    0.742
  1154   1 H    0.783 --   223 O    0.740
  1155   1 H    0.781 --   254 O    0.740
  1156   1 H    0.756 --   286 O    0.722
  1157   1 H    0.759 --   319 O    0.725
  1158   1 H    0.759 --   351 O    0.725
  1159   1 H    0.757 --   383 O    0.722
  1160   1 H    0.758 --   413 O    0.723
  1161   1 H    0.772 --   445 O    0.735
  1162   1 H    0.785 --   477 O    0.744
  1163   1 H    0.788 --   507 O    0.744
  1164   1 H    0.790 --   539 O    0.747
 ---------------------------------------------------------------------------


molecular dipole:
                 x           y           z       tot (Debye)
 q only:       27.574      14.938      14.377
   full:       27.297      16.885      12.978      87.999
molecular quadrupole (traceless):
                xx          xy          yy          xz          yz          zz
 q only:      563.348     264.165    -505.703    -150.242    -742.147     -57.645
  q+dip:      551.661     191.037    -492.957    -174.517    -702.364     -58.704
   full:      523.955     196.294    -444.110    -176.095    -685.017     -79.845


           -------------------------------------------------
          | TOTAL ENERGY            -2299.879845172848 Eh   |
          | GRADIENT NORM               0.821947326252 Eh/α |
          | HOMO-LUMO GAP               2.517207823680 eV   |
           -------------------------------------------------
########################################################################
[WARNING] Runtime exception occurred
-2- restart_readRestart: Dimension missmatch in restart file.
-1- restart_readRestart: Number of electron missmatch in restart file.
########################################################################

------------------------------------------------------------------------
 * finished run on 2023/03/09 at 13:52:47.372     
------------------------------------------------------------------------
 total:
 * wall-time:     0 d,  0 h,  0 min, 37.909 sec
 *  cpu-time:     0 d,  0 h,  5 min, 32.928 sec
 * ratio c/w:     8.782 speedup
 SCF:
 * wall-time:     0 d,  0 h,  0 min, 34.727 sec
 *  cpu-time:     0 d,  0 h,  5 min, 23.133 sec
 * ratio c/w:     9.305 speedup

