      -----------------------------------------------------------      
     |                   =====================                   |     
     |                           x T B                           |     
     |                   =====================                   |     
     |                         S. Grimme                         |     
     |          Mulliken Center for Theoretical Chemistry        |     
     |                    University of Bonn                     |     
      -----------------------------------------------------------      

   * xtb version 6.5.1 (579679a) compiled by 'ehlert@majestix' on 2022-07-11

   xtb is free software: you can redistribute it and/or modify it under
   the terms of the GNU Lesser General Public License as published by
   the Free Software Foundation, either version 3 of the License, or
   (at your option) any later version.
   
   xtb is distributed in the hope that it will be useful,
   but WITHOUT ANY WARRANTY; without even the implied warranty of
   MERCHANTABILITY or FITNESS FOR A PARTICULAR PURPOSE.  See the
   GNU Lesser General Public License for more details.
   
   Cite this work as:
   * C. Bannwarth, E. Caldeweyher, S. Ehlert, A. Hansen, P. Pracht,
     J. Seibert, S. Spicher, S. Grimme, WIREs Comput. Mol. Sci., 2020, 11,
     e01493. DOI: 10.1002/wcms.1493
   
   for GFN2-xTB:
   * C. Bannwarth, S. Ehlert and S. Grimme., J. Chem. Theory Comput., 2019,
     15, 1652-1671. DOI: 10.1021/acs.jctc.8b01176
   for GFN1-xTB:
   * S. Grimme, C. Bannwarth, P. Shushkov, J. Chem. Theory Comput., 2017,
     13, 1989-2009. DOI: 10.1021/acs.jctc.7b00118
   for GFN0-xTB:
   * P. Pracht, E. Caldeweyher, S. Ehlert, S. Grimme, ChemRxiv, 2019, preprint.
     DOI: 10.26434/chemrxiv.8326202.v1
   for GFN-FF:
   * S. Spicher and S. Grimme, Angew. Chem. Int. Ed., 2020, 59, 15665-15673.
     DOI: 10.1002/anie.202004239
   
   for ALPB and GBSA implicit solvation:
   * S. Ehlert, M. Stahn, S. Spicher, S. Grimme, J. Chem. Theory Comput.,
     2021, 17, 4250-4261. DOI: 10.1021/acs.jctc.1c00471
   
   for DFT-D4:
   * E. Caldeweyher, C. Bannwarth and S. Grimme, J. Chem. Phys., 2017,
     147, 034112. DOI: 10.1063/1.4993215
   * E. Caldeweyher, S. Ehlert, A. Hansen, H. Neugebauer, S. Spicher,
     C. Bannwarth and S. Grimme, J. Chem. Phys., 2019, 150, 154122.
     DOI: 10.1063/1.5090222
   * E. Caldeweyher, J.-M. Mewes, S. Ehlert and S. Grimme, Phys. Chem. Chem. Phys.
     2020, 22, 8499-8512. DOI: 10.1039/D0CP00502A
   
   for sTDA-xTB:
   * S. Grimme and C. Bannwarth, J. Chem. Phys., 2016, 145, 054103.
     DOI: 10.1063/1.4959605
   
   in the mass-spec context:
   * V. Asgeirsson, C. Bauer and S. Grimme, Chem. Sci., 2017, 8, 4879.
     DOI: 10.1039/c7sc00601b
   * J. Koopman and S. Grimme, ACS Omega 2019, 4, 12, 15120-15133.
     DOI: 10.1021/acsomega.9b02011
   
   for metadynamics refer to:
   * S. Grimme, J. Chem. Theory Comput., 2019, 155, 2847-2862
     DOI: 10.1021/acs.jctc.9b00143
   
   for SPH calculations refer to:
   * S. Spicher and S. Grimme, J. Chem. Theory Comput., 2021, 17, 1701-1714
     DOI: 10.1021/acs.jctc.0c01306
   
   with help from (in alphabetical order)
   P. Atkinson, C. Bannwarth, F. Bohle, G. Brandenburg, E. Caldeweyher
   M. Checinski, S. Dohm, S. Ehlert, S. Ehrlich, I. Gerasimov, C. Hölzer
   A. Katbashev, J. Koopman, C. Lavigne, S. Lehtola, F. März, M. Müller,
   F. Musil, H. Neugebauer, J. Pisarek, C. Plett, P. Pracht, F. Pultar,
   J. Seibert, P. Shushkov, S. Spicher, M. Stahn, M. Steiner, T. Strunk,
   J. Stückrath, T. Rose, and J. Unsleber
   
 * started run on 2023/03/09 at 13:52:47.473     

           -------------------------------------------------
          |                Calculation Setup                |
           -------------------------------------------------

          program call               : /N/u/schandy/BigRed3/bin/xtb-6.5.1/bin/xtb 6xah.xyz --gbsa water
          hostname                   : nid00066
          coordinate file            : 6xah.xyz
          omp threads                :                    10

   ID    Z sym.   atoms
    1    8 O      1, 4, 6, 11, 14, 32-34, 37, 39, 64-66, 69, 71, 76, 79,
                  96-98, 101, 103, 111, 129-131, 134, 136, 141, 144, 161-163,
                  166, 168, 173, 191-193, 196, 198, 203, 206, 223-225, 228,
                  230, 254-256, 259, 261, 286-288, 291, 293, 301, 319-321,
                  324, 326, 331, 334, 351-353, 356, 358, 363, 366, 383-385,
                  388, 390, 395, 413-415, 418, 420, 445-447, 450, 452, 457,
                  460, 477-479, 482, 484, 489, 507-509, 512, 514, 519, 522,
                  539-541, 544, 546, 571, 574, 576, 581, 584, 602-604, 607,
                  609, 634-636, 639, 641, 649, 667-669, 672, 674, 699-701,
                  704, 706, 711, 714, 731-733, 736, 738, 746, 764-766, 769,
                  771, 796-798, 801, 803, 828-830, 833, 835, 840, 858-860,
                  863, 867, 876-878, 881, 883, 888, 891, 908-910, 913, 915,
                  940-942, 945, 947, 955, 973-975, 978, 980, 1005-1007, 1010,
                  1012, 1017, 1035-1037, 1040, 1042, 1067-1069, 1072, 1074,
                  1079, 1082, 1099-1101, 1104, 1106
    2    6 C      2, 3, 5, 7, 8, 10, 13, 15-17, 35, 36, 38, 40, 41, 43, 45,
                  46, 49, 51, 67, 68, 70, 72, 73, 75, 78, 80-82, 99, 100,
                  102, 104, 105, 107, 109, 110, 113, 116, 132, 133, 135, 137,
                  138, 140, 143, 145-147, 164, 165, 167, 169, 170, 172, 175,
                  177, 178, 194, 195, 197, 199, 200, 202, 205, 207-209, 226,
                  227, 229, 231, 232, 234, 236, 237, 240, 242, 257, 258, 260,
                  262, 263, 265, 267, 268, 271, 273, 289, 290, 292, 294, 295,
                  297, 299, 300, 303, 306, 322, 323, 325, 327, 328, 330, 333,
                  335-337, 354, 355, 357, 359, 360, 362, 365, 367-369, 386,
                  387, 389, 391, 392, 394, 397, 399, 400, 416, 417, 419, 421,
                  422, 424, 426, 427, 430, 432, 448, 449, 451, 453, 454, 456,
                  459, 461-463, 480, 481, 483, 485, 486, 488, 491, 493, 494,
                  510, 511, 513, 515, 516, 518, 521, 523-525, 542, 543, 545,
                  547, 548, 550, 552, 553, 556, 558, 572, 573, 575, 577, 578,
                  580, 583, 585-587, 605, 606, 608, 610, 611, 613, 615, 616,
                  619, 621, 637, 638, 640, 642, 643, 645, 647, 648, 651, 654,
                  670, 671, 673, 675, 676, 678, 680, 681, 684, 686, 702, 703,
                  705, 707, 708, 710, 713, 715-717, 734, 735, 737, 739, 740,
                  742, 744, 745, 748, 751, 767, 768, 770, 772, 773, 775, 777,
                  778, 781, 783, 799, 800, 802, 804, 805, 807, 809, 810, 813,
                  815, 831, 832, 834, 836, 837, 839, 842, 844, 845, 861, 862,
                  864-866, 879, 880, 882, 884, 885, 887, 890, 892-894, 911,
                  912, 914, 916, 917, 919, 921, 922, 925, 927, 943, 944, 946,
                  948, 949, 951, 953, 954, 957, 960, 976, 977, 979, 981, 982,
                  984, 986, 987, 990, 992, 1008, 1009, 1011, 1013, 1014,
                  1016, 1019, 1021, 1022, 1038, 1039, 1041, 1043, 1044, 1046,
                  1048, 1049, 1052, 1054, 1070, 1071, 1073, 1075, 1076, 1078,
                  1081, 1083-1085, 1102, 1103, 1105, 1107, 1108, 1110, 1112,
                  1113, 1116, 1118
    3    7 N      9, 12, 42, 44, 47, 48, 50, 74, 77, 106, 108, 112, 114, 115,
                  139, 142, 171, 174, 176, 201, 204, 233, 235, 238, 239, 241,
                  264, 266, 269, 270, 272, 296, 298, 302, 304, 305, 329, 332,
                  361, 364, 393, 396, 398, 423, 425, 428, 429, 431, 455, 458,
                  487, 490, 492, 517, 520, 549, 551, 554, 555, 557, 579, 582,
                  612, 614, 617, 618, 620, 644, 646, 650, 652, 653, 677, 679,
                  682, 683, 685, 709, 712, 741, 743, 747, 749, 750, 774, 776,
                  779, 780, 782, 806, 808, 811, 812, 814, 838, 841, 843, 886,
                  889, 918, 920, 923, 924, 926, 950, 952, 956, 958, 959, 983,
                  985, 988, 989, 991, 1015, 1018, 1020, 1045, 1047, 1050,
                  1051, 1053, 1077, 1080, 1109, 1111, 1114, 1115, 1117
    4    1 H      18-30, 52-62, 83-94, 117-127, 148-159, 179-189, 210-221,
                  243-252, 274-284, 307-317, 338-349, 370-381, 401-411,
                  433-443, 464-475, 495-505, 526-537, 559-570, 588-600,
                  622-632, 655-665, 687-697, 718-729, 752-762, 784-794,
                  816-826, 846-856, 868-874, 895-906, 928-938, 961-971,
                  993-1003, 1023-1033, 1055-1065, 1086-1097, 1119-1164
    5   15 P      31, 63, 95, 128, 160, 190, 222, 253, 285, 318, 350, 382,
                  412, 444, 476, 506, 538, 601, 633, 666, 698, 730, 763, 795,
                  827, 857, 875, 907, 939, 972, 1004, 1034, 1066, 1098

           -------------------------------------------------
          |                 G F N 2 - x T B                 |
           -------------------------------------------------

        Reference                      10.1021/acs.jctc.8b01176
      * Hamiltonian:
        H0-scaling (s, p, d)           1.850000    2.230000    2.230000
        zeta-weighting                 0.500000
      * Dispersion:
        s8                             2.700000
        a1                             0.520000
        a2                             5.000000
        s9                             5.000000
      * Repulsion:
        kExp                           1.500000    1.000000
        rExp                           1.000000
      * Coulomb:
        alpha                          2.000000
        third order                    shell-resolved
        anisotropic                    true
        a3                             3.000000
        a5                             4.000000
        cn-shift                       1.200000
        cn-exp                         4.000000
        max-rad                        5.000000

      * Solvation model:               GBSA
        Solvent                        water
        Parameter file                 internal GFN2-xTB/GBSA
        Dielectric constant                8.0200E+01
        Reference state                gsolv [1 M gas/solution]
        Free energy shift                  1.8574E-03 Eh       1.1656E+00 kcal/mol
        Temperature                        2.9815E+02 K
        Density                            1.0000E+00 kg/L
        Solvent mass                       1.8000E+01 g/mol
        Interaction kernel             Still
        Born radius scaling (c1)           1.5524E+00
        Born radii integrator          GBOBC
        Born offset                        2.4628E-02 a0       4.6540E-02 AA
        H-bond correction              true
        Ion screening                  false
        Surface tension                    1.0000E-05 Eh       1.5569E+01 dyn/cm
        Grid points                               230 per atom
q/qsh data taken from xtbrestart
CAMM data taken from xtbrestart

          ...................................................
          :                      SETUP                      :
          :.................................................:
          :  # basis functions                3537          :
          :  # atomic orbitals                3503          :
          :  # shells                         1921          :
          :  # electrons                      3916          :
          :  max. iterations                   250          :
          :  Hamiltonian                  GFN2-xTB          :
          :  restarted?                       true          :
          :  GBSA solvation                   true          :
          :  PC potential                    false          :
          :  electronic temp.          300.0000000     K    :
          :  accuracy                    1.0000000          :
          :  -> integral cutoff          0.2500000E+02      :
          :  -> integral neglect         0.1000000E-07      :
          :  -> SCF convergence          0.1000000E-05 Eh   :
          :  -> wf. convergence          0.1000000E-03 e    :
          :  Broyden damping             0.4000000          :
          ...................................................

 iter      E             dE          RMSdq      gap      omega  full diag
   1  -2321.8289756 -0.232183E+04  0.234E-01    2.22       0.0  T
   2  -2321.8536043 -0.246287E-01  0.914E-02    2.48       1.0  T
   3  -2321.8569719 -0.336757E-02  0.507E-02    2.39       1.0  T
   4  -2321.8576525 -0.680645E-03  0.273E-02    2.42       1.0  T
   5  -2321.8579607 -0.308238E-03  0.109E-02    2.42       1.0  T
   6  -2321.8579983 -0.375975E-04  0.607E-03    2.41       1.0  T
   7  -2321.8580108 -0.124163E-04  0.312E-03    2.41       1.0  T
   8  -2321.8580138 -0.305317E-05  0.166E-03    2.41       1.8  T
   9  -2321.8580145 -0.707248E-06  0.787E-04    2.41       3.7  T
  10  -2321.8580148 -0.246680E-06  0.381E-04    2.41       7.7  T

   *** convergence criteria satisfied after 10 iterations ***

         #    Occupation            Energy/Eh            Energy/eV
      -------------------------------------------------------------
         1        2.0000           -0.7854534             -21.3733
       ...           ...                  ...                  ...
      1952        2.0000           -0.3804505             -10.3526
      1953        2.0000           -0.3798030             -10.3350
      1954        2.0000           -0.3795212             -10.3273
      1955        2.0000           -0.3795074             -10.3269
      1956        2.0000           -0.3781024             -10.2887
      1957        2.0000           -0.3774357             -10.2705
      1958        2.0000           -0.3772930             -10.2667 (HOMO)
      1959                         -0.2887568              -7.8575 (LUMO)
      1960                         -0.2876053              -7.8261
      1961                         -0.2866068              -7.7990
      1962                         -0.2865925              -7.7986
      1963                         -0.2850626              -7.7569
       ...                                ...                  ...
      3503                          1.3523964              36.8006
      -------------------------------------------------------------
                  HL-Gap            0.0885362 Eh            2.4092 eV
             Fermi-level           -0.3330249 Eh           -9.0621 eV

 SCC (total)                   0 d,  0 h,  0 min, 26.753 sec
 SCC setup                      ...        0 min,  0.178 sec (  0.666%)
 Dispersion                     ...        0 min,  0.634 sec (  2.371%)
 classical contributions        ...        0 min,  0.006 sec (  0.024%)
 integral evaluation            ...        0 min,  1.434 sec (  5.360%)
 iterations                     ...        0 min, 19.652 sec ( 73.458%)
 molecular gradient             ...        0 min,  4.511 sec ( 16.861%)
 printout                       ...        0 min,  0.337 sec (  1.259%)

         :::::::::::::::::::::::::::::::::::::::::::::::::::::
         ::                     SUMMARY                     ::
         :::::::::::::::::::::::::::::::::::::::::::::::::::::
         :: total energy           -2299.653732962146 Eh    ::
         :: total w/o Gsasa/hb     -2299.303166829900 Eh    ::
         :: gradient norm              0.863777253135 Eh/a0 ::
         :: HOMO-LUMO gap              2.409192240490 eV    ::
         ::.................................................::
         :: SCC energy             -2321.858014767711 Eh    ::
         :: -> isotropic ES            7.815767338050 Eh    ::
         :: -> anisotropic ES         -0.447426378307 Eh    ::
         :: -> anisotropic XC          0.436272153246 Eh    ::
         :: -> dispersion             -2.012690108945 Eh    ::
         :: -> Gsolv                  -1.306132443930 Eh    ::
         ::    -> Gelec               -0.955566311683 Eh    ::
         ::    -> Gsasa               -0.021400956690 Eh    ::
         ::    -> Ghb                 -0.331022618683 Eh    ::
         ::    -> Gshift               0.001857443127 Eh    ::
         :: repulsion energy          22.030295394028 Eh    ::
         :: add. restraining           0.000000000000 Eh    ::
         :: total charge               0.000000000000 e     ::
         :::::::::::::::::::::::::::::::::::::::::::::::::::::

           -------------------------------------------------
          |                Property Printout                |
           -------------------------------------------------

    * Orbital Energies and Occupations

         #    Occupation            Energy/Eh            Energy/eV
      -------------------------------------------------------------
         1        2.0000           -0.7854534             -21.3733
       ...           ...                  ...                  ...
      1946        2.0000           -0.3827948             -10.4164
      1947        2.0000           -0.3824186             -10.4061
      1948        2.0000           -0.3823284             -10.4037
      1949        2.0000           -0.3821565             -10.3990
      1950        2.0000           -0.3817189             -10.3871
      1951        2.0000           -0.3808894             -10.3645
      1952        2.0000           -0.3804505             -10.3526
      1953        2.0000           -0.3798030             -10.3350
      1954        2.0000           -0.3795212             -10.3273
      1955        2.0000           -0.3795074             -10.3269
      1956        2.0000           -0.3781024             -10.2887
      1957        2.0000           -0.3774357             -10.2705
      1958        2.0000           -0.3772930             -10.2667 (HOMO)
      1959                         -0.2887568              -7.8575 (LUMO)
      1960                         -0.2876053              -7.8261
      1961                         -0.2866068              -7.7990
      1962                         -0.2865925              -7.7986
      1963                         -0.2850626              -7.7569
      1964                         -0.2847462              -7.7483
      1965                         -0.2840219              -7.7286
      1966                         -0.2827656              -7.6944
      1967                         -0.2804336              -7.6310
      1968                         -0.2793309              -7.6010
      1969                         -0.2780399              -7.5659
       ...                                ...                  ...
      3503                          1.3523964              36.8006
      -------------------------------------------------------------
                  HL-Gap            0.0885362 Eh            2.4092 eV
             Fermi-level           -0.3330249 Eh           -9.0621 eV

 * generalized Born model for continuum solvation

     #   Z     Born rad/Å   SASA/Å²    H-bond
     1   8 O        2.298     6.334    -0.001
     2   6 C        2.734     0.835    -0.000
     3   6 C        3.136     0.320    -0.000
     4   8 O        2.801     9.565    -0.001
     5   6 C        3.246     0.259    -0.000
     6   8 O        2.610     4.594    -0.001
     7   6 C        3.259     0.481    -0.000
     8   6 C        3.443     0.547    -0.000
     9   7 N        3.387     0.859    -0.000
    10   6 C        3.291     4.555    -0.000
    11   8 O        2.439    14.902    -0.002
    12   7 N        3.026     2.035    -0.001
    13   6 C        3.217     3.893    -0.000
    14   8 O        2.477    10.817    -0.001
    15   6 C        3.384     2.335    -0.000
    16   6 C        2.630     3.648    -0.000
    17   6 C        3.210     4.297    -0.000
    18   1 H        2.067    18.331    -0.024
    19   1 H        2.074    17.518    -0.023
    20   1 H        2.146    16.324    -0.022
    21   1 H        2.253     7.693    -0.010
    22   1 H        2.362     5.595    -0.007
    23   1 H        2.400     0.164    -0.000
    24   1 H        2.348     9.749    -0.013
    25   1 H        2.803     2.903    -0.004
    26   1 H        2.083    16.849    -0.023
    27   1 H        2.087    16.599    -0.022
    28   1 H        2.059    19.258    -0.026
    29   1 H        2.289     4.137    -0.006
    30   1 H        1.925    22.970    -0.031
    31  15 P        3.190     7.918    -0.001
    32   8 O        2.216    10.946    -0.002
    33   8 O        2.188    24.471    -0.003
    34   8 O        2.643     1.244    -0.000
    35   6 C        2.876     0.507    -0.000
    36   6 C        3.386     0.264    -0.000
    37   8 O        2.976     7.012    -0.001
    38   6 C        3.418     0.255    -0.000
    39   8 O        2.788     1.259    -0.000
    40   6 C        3.372     0.765    -0.000
    41   6 C        3.766     0.145    -0.000
    42   7 N        3.962     0.066    -0.000
    43   6 C        3.370     0.632    -0.000
    44   7 N        2.990     6.970    -0.002
    45   6 C        4.585     0.030    -0.000
    46   6 C        4.201     0.004    -0.000
    47   7 N        2.813     0.228    -0.000
    48   7 N        3.727     0.001    -0.000
    49   6 C        3.411     0.510    -0.000
    50   7 N        3.110     7.954    -0.002
    51   6 C        4.513     0.581    -0.000
    52   1 H        2.152    13.324    -0.018
    53   1 H        2.186     9.067    -0.012
    54   1 H        2.319     7.220    -0.010
    55   1 H        2.282     9.968    -0.013
    56   1 H        2.406     6.751    -0.009
    57   1 H        2.414     2.600    -0.003
    58   1 H        2.686     1.586    -0.002
    59   1 H        2.358     6.817    -0.009
    60   1 H        2.730     1.462    -0.002
    61   1 H        2.326    10.285    -0.014
    62   1 H        2.399     8.053    -0.011
    63  15 P        3.237     8.597    -0.001
    64   8 O        2.296    11.907    -0.002
    65   8 O        2.170    28.270    -0.004
    66   8 O        2.553     5.591    -0.001
    67   6 C        2.827     0.970    -0.000
    68   6 C        3.304     0.174    -0.000
    69   8 O        3.069     2.388    -0.000
    70   6 C        3.307     0.065    -0.000
    71   8 O        2.637     3.918    -0.001
    72   6 C        3.353     0.162    -0.000
    73   6 C        3.710     0.185    -0.000
    74   7 N        3.803     0.000    -0.000
    75   6 C        3.770     0.033    -0.000
    76   8 O        2.626     7.510    -0.001
    77   7 N        3.518     0.000    -0.000
    78   6 C        3.610     0.002    -0.000
    79   8 O        2.623     7.785    -0.001
    80   6 C        3.793     0.117    -0.000
    81   6 C        2.734     2.909    -0.000
    82   6 C        3.543     0.659    -0.000
    83   1 H        2.189     9.031    -0.012
    84   1 H        2.097    18.314    -0.024
    85   1 H        2.254    13.472    -0.018
    86   1 H        2.276     7.526    -0.010
    87   1 H        2.386     8.025    -0.011
    88   1 H        2.480     0.126    -0.000
    89   1 H        2.498     8.178    -0.011
    90   1 H        3.294     0.001    -0.000
    91   1 H        2.132    16.973    -0.023
    92   1 H        2.160    12.218    -0.016
    93   1 H        2.145    14.576    -0.019
    94   1 H        2.397     4.853    -0.006
    95  15 P        3.215     9.231    -0.001
    96   8 O        2.222    13.627    -0.002
    97   8 O        2.196    24.554    -0.003
    98   8 O        2.660     1.516    -0.000
    99   6 C        2.874     0.425    -0.000
   100   6 C        3.282     0.229    -0.000
   101   8 O        2.983     6.786    -0.001
   102   6 C        3.331     0.226    -0.000
   103   8 O        2.661     4.454    -0.001
   104   6 C        3.415     0.096    -0.000
   105   6 C        3.678     0.670    -0.000
   106   7 N        4.023     0.189    -0.000
   107   6 C        3.490     0.446    -0.000
   108   7 N        3.099     5.246    -0.002
   109   6 C        4.509     0.034    -0.000
   110   6 C        3.873     0.044    -0.000
   111   8 O        2.765     3.638    -0.000
   112   7 N        3.860     0.000     0.000
   113   6 C        4.223     0.006    -0.000
   114   7 N        2.854     0.433    -0.000
   115   7 N        3.378     3.273    -0.001
   116   6 C        4.648     0.032    -0.000
   117   1 H        2.180    11.716    -0.016
   118   1 H        2.147    13.312    -0.018
   119   1 H        2.213    15.179    -0.020
   120   1 H        2.270     8.821    -0.012
   121   1 H        2.448     5.277    -0.007
   122   1 H        2.499     0.003    -0.000
   123   1 H        2.464     7.031    -0.009
   124   1 H        2.472     3.813    -0.005
   125   1 H        3.544     0.007    -0.000
   126   1 H        2.329    15.056    -0.020
   127   1 H        2.707     2.259    -0.003
   128  15 P        3.247     8.943    -0.001
   129   8 O        2.227    15.135    -0.002
   130   8 O        2.221    21.431    -0.003
   131   8 O        2.702     0.723    -0.000
   132   6 C        2.907     0.439    -0.000
   133   6 C        3.286     0.207    -0.000
   134   8 O        2.993     4.394    -0.001
   135   6 C        3.319     0.148    -0.000
   136   8 O        2.637     5.065    -0.001
   137   6 C        3.339     0.350    -0.000
   138   6 C        3.687     0.101    -0.000
   139   7 N        3.794     0.000    -0.000
   140   6 C        3.727     0.010    -0.000
   141   8 O        2.625     7.892    -0.001
   142   7 N        3.496     0.000    -0.000
   143   6 C        3.678     0.000     0.000
   144   8 O        2.671     7.818    -0.001
   145   6 C        3.856     0.058    -0.000
   146   6 C        2.799     2.648    -0.000
   147   6 C        3.562     0.430    -0.000
   148   1 H        2.186    11.279    -0.015
   149   1 H        2.200     9.664    -0.013
   150   1 H        2.207    15.687    -0.021
   151   1 H        2.282     7.785    -0.010
   152   1 H        2.400     8.126    -0.011
   153   1 H        2.441     0.721    -0.001
   154   1 H        2.459     6.824    -0.009
   155   1 H        3.310     0.029    -0.000
   156   1 H        2.286     6.523    -0.009
   157   1 H        2.213    10.094    -0.013
   158   1 H        2.145    15.479    -0.021
   159   1 H        2.472     1.890    -0.003
   160  15 P        3.216    10.276    -0.001
   161   8 O        2.222    15.193    -0.002
   162   8 O        2.201    24.033    -0.003
   163   8 O        2.652     2.494    -0.000
   164   6 C        2.882     0.381    -0.000
   165   6 C        3.283     0.150    -0.000
   166   8 O        3.001     3.525    -0.000
   167   6 C        3.309     0.053    -0.000
   168   8 O        2.644     4.704    -0.001
   169   6 C        3.342     0.282    -0.000
   170   6 C        3.640     0.470    -0.000
   171   7 N        3.734     0.026    -0.000
   172   6 C        3.629     0.273    -0.000
   173   8 O        2.704     7.093    -0.001
   174   7 N        3.715     0.000     0.000
   175   6 C        4.081     0.000    -0.000
   176   7 N        2.839     0.130    -0.000
   177   6 C        3.542     0.032    -0.000
   178   6 C        3.520     0.005    -0.000
   179   1 H        2.187    11.007    -0.015
   180   1 H        2.163    11.935    -0.016
   181   1 H        2.220    14.631    -0.020
   182   1 H        2.281     7.313    -0.010
   183   1 H        2.406     5.215    -0.007
   184   1 H        2.436     0.159    -0.000
   185   1 H        2.421     8.737    -0.012
   186   1 H        2.759     1.392    -0.002
   187   1 H        2.348     9.123    -0.012
   188   1 H        2.266     8.877    -0.012
   189   1 H        2.418     4.127    -0.006
   190  15 P        3.213    10.191    -0.001
   191   8 O        2.221    15.122    -0.002
   192   8 O        2.197    24.391    -0.003
   193   8 O        2.645     2.680    -0.000
   194   6 C        2.878     0.422    -0.000
   195   6 C        3.294     0.135    -0.000
   196   8 O        3.026     3.498    -0.000
   197   6 C        3.285     0.046    -0.000
   198   8 O        2.645     4.482    -0.001
   199   6 C        3.237     0.809    -0.000
   200   6 C        3.570     0.270    -0.000
   201   7 N        3.570     0.704    -0.000
   202   6 C        3.521     1.656    -0.000
   203   8 O        2.578     8.651    -0.001
   204   7 N        3.335     0.052    -0.000
   205   6 C        3.496     0.568    -0.000
   206   8 O        2.611     7.047    -0.001
   207   6 C        3.642     2.041    -0.000
   208   6 C        2.717     2.962    -0.000
   209   6 C        3.382     2.374    -0.000
   210   1 H        2.192    10.859    -0.015
   211   1 H        2.153    12.611    -0.017
   212   1 H        2.240    14.134    -0.019
   213   1 H        2.269     7.791    -0.010
   214   1 H        2.326    10.860    -0.015
   215   1 H        2.329     5.120    -0.007
   216   1 H        2.425     8.662    -0.012
   217   1 H        3.196     0.000     0.000
   218   1 H        2.187     8.873    -0.012
   219   1 H        2.134    14.421    -0.019
   220   1 H        2.105    19.341    -0.026
   221   1 H        2.348     4.961    -0.007
   222  15 P        3.216     9.680    -0.001
   223   8 O        2.227    15.078    -0.002
   224   8 O        2.199    24.193    -0.003
   225   8 O        2.632     1.926    -0.000
   226   6 C        2.891     0.453    -0.000
   227   6 C        3.299     0.203    -0.000
   228   8 O        2.971     6.126    -0.001
   229   6 C        3.349     0.063    -0.000
   230   8 O        2.683     3.771    -0.001
   231   6 C        3.429     0.002    -0.000
   232   6 C        3.602     0.430    -0.000
   233   7 N        3.910     0.043    -0.000
   234   6 C        3.218     6.718    -0.000
   235   7 N        2.855    13.068    -0.004
   236   6 C        4.361     0.172    -0.000
   237   6 C        4.038     0.146    -0.000
   238   7 N        3.103     1.386    -0.000
   239   7 N        3.292     3.615    -0.001
   240   6 C        3.322     0.411    -0.000
   241   7 N        3.100     5.336    -0.002
   242   6 C        4.400     0.047    -0.000
   243   1 H        2.194     9.869    -0.013
   244   1 H        2.203     9.361    -0.013
   245   1 H        2.251    13.339    -0.018
   246   1 H        2.280     8.162    -0.011
   247   1 H        2.466     4.901    -0.007
   248   1 H        2.571     0.011    -0.000
   249   1 H        2.404    10.450    -0.014
   250   1 H        2.283    12.203    -0.016
   251   1 H        2.415    10.683    -0.014
   252   1 H        2.351    12.214    -0.016
   253  15 P        3.257     9.620    -0.001
   254   8 O        2.222    15.247    -0.002
   255   8 O        2.232    20.211    -0.003
   256   8 O        2.725     1.016    -0.000
   257   6 C        2.905     0.400    -0.000
   258   6 C        3.270     0.243    -0.000
   259   8 O        2.933     7.626    -0.001
   260   6 C        3.291     0.239    -0.000
   261   8 O        2.637     4.893    -0.001
   262   6 C        3.401     0.029    -0.000
   263   6 C        3.641     0.279    -0.000
   264   7 N        3.991     0.084    -0.000
   265   6 C        3.358     1.834    -0.000
   266   7 N        2.946     9.356    -0.003
   267   6 C        4.534     0.015    -0.000
   268   6 C        4.086     0.007    -0.000
   269   7 N        2.759     0.633    -0.000
   270   7 N        3.319     3.655    -0.001
   271   6 C        3.309     0.545    -0.000
   272   7 N        3.073     7.214    -0.002
   273   6 C        4.515     0.362    -0.000
   274   1 H        2.195    10.882    -0.015
   275   1 H        2.168    10.916    -0.015
   276   1 H        2.201    15.597    -0.021
   277   1 H        2.255     9.245    -0.012
   278   1 H        2.451     5.760    -0.008
   279   1 H        2.570     0.001    -0.000
   280   1 H        2.487     6.410    -0.009
   281   1 H        2.350     6.531    -0.009
   282   1 H        2.439     8.576    -0.011
   283   1 H        2.322    12.690    -0.017
   284   1 H        2.300    15.869    -0.021
   285  15 P        3.228     7.645    -0.001
   286   8 O        2.214    11.978    -0.002
   287   8 O        2.211    22.452    -0.003
   288   8 O        2.664     1.923    -0.000
   289   6 C        2.894     0.420    -0.000
   290   6 C        3.309     0.202    -0.000
   291   8 O        3.030     4.325    -0.001
   292   6 C        3.324     0.234    -0.000
   293   8 O        2.693     3.892    -0.001
   294   6 C        3.383     0.213    -0.000
   295   6 C        3.746     0.220    -0.000
   296   7 N        4.056     0.007    -0.000
   297   6 C        3.372     0.686    -0.000
   298   7 N        2.908    12.287    -0.004
   299   6 C        4.310     0.107    -0.000
   300   6 C        3.692     0.137    -0.000
   301   8 O        2.639     9.898    -0.001
   302   7 N        3.737     0.000    -0.000
   303   6 C        4.125     0.001    -0.000
   304   7 N        2.795     1.161    -0.000
   305   7 N        3.395     3.036    -0.001
   306   6 C        4.656     0.031    -0.000
   307   1 H        2.214    10.281    -0.014
   308   1 H        2.141    14.348    -0.019
   309   1 H        2.217    14.992    -0.020
   310   1 H        2.244    10.543    -0.014
   311   1 H        2.408     6.319    -0.008
   312   1 H        2.488     0.035    -0.000
   313   1 H        2.548     3.322    -0.004
   314   1 H        2.340     7.707    -0.010
   315   1 H        3.444     0.000    -0.000
   316   1 H        2.295    16.040    -0.021
   317   1 H        2.634     3.226    -0.004
   318  15 P        3.254     7.137    -0.001
   319   8 O        2.225    11.408    -0.002
   320   8 O        2.232    20.936    -0.003
   321   8 O        2.697     0.572    -0.000
   322   6 C        2.909     0.440    -0.000
   323   6 C        3.282     0.295    -0.000
   324   8 O        3.006     4.864    -0.001
   325   6 C        3.314     0.347    -0.000
   326   8 O        2.657     4.528    -0.001
   327   6 C        3.370     0.491    -0.000
   328   6 C        3.738     0.097    -0.000
   329   7 N        3.824     0.000    -0.000
   330   6 C        3.750     0.008    -0.000
   331   8 O        2.610     8.552    -0.001
   332   7 N        3.509     0.000     0.000
   333   6 C        3.733     0.000     0.000
   334   8 O        2.707     4.837    -0.001
   335   6 C        4.003     0.000     0.000
   336   6 C        2.849     1.937    -0.000
   337   6 C        3.661     0.000    -0.000
   338   1 H        2.208     9.501    -0.013
   339   1 H        2.158    12.882    -0.017
   340   1 H        2.188    16.297    -0.022
   341   1 H        2.250     9.227    -0.012
   342   1 H        2.427     5.161    -0.007
   343   1 H        2.435     1.603    -0.002
   344   1 H        2.533     4.039    -0.005
   345   1 H        3.230     0.003    -0.000
   346   1 H        2.251     7.954    -0.011
   347   1 H        2.194    11.665    -0.016
   348   1 H        2.319     5.749    -0.008
   349   1 H        2.518     1.140    -0.002
   350  15 P        3.212     7.729    -0.001
   351   8 O        2.215    11.737    -0.002
   352   8 O        2.201    23.852    -0.003
   353   8 O        2.640     2.546    -0.000
   354   6 C        2.866     0.500    -0.000
   355   6 C        3.332     0.156    -0.000
   356   8 O        3.118     1.255    -0.000
   357   6 C        3.320     0.160    -0.000
   358   8 O        2.681     3.576    -0.000
   359   6 C        3.312     0.403    -0.000
   360   6 C        3.759     0.079    -0.000
   361   7 N        3.827     0.000    -0.000
   362   6 C        3.776     0.005    -0.000
   363   8 O        2.658     5.052    -0.001
   364   7 N        3.496     0.000    -0.000
   365   6 C        3.636     0.000     0.000
   366   8 O        2.628     6.113    -0.001
   367   6 C        3.803     0.037    -0.000
   368   6 C        2.741     2.824    -0.000
   369   6 C        3.572     0.419    -0.000
   370   1 H        2.195    10.712    -0.014
   371   1 H        2.124    15.352    -0.021
   372   1 H        2.248    14.244    -0.019
   373   1 H        2.242     9.419    -0.013
   374   1 H        2.350     9.694    -0.013
   375   1 H        2.393     2.423    -0.003
   376   1 H        2.560     4.318    -0.006
   377   1 H        3.298     0.000    -0.000
   378   1 H        2.150    14.202    -0.019
   379   1 H        2.127    14.767    -0.020
   380   1 H        2.191     8.261    -0.011
   381   1 H        2.442     3.096    -0.004
   382  15 P        3.233     7.063    -0.001
   383   8 O        2.224    11.300    -0.002
   384   8 O        2.217    22.717    -0.003
   385   8 O        2.651     1.128    -0.000
   386   6 C        2.869     0.483    -0.000
   387   6 C        3.279     0.220    -0.000
   388   8 O        2.989     5.504    -0.001
   389   6 C        3.322     0.284    -0.000
   390   8 O        2.691     3.667    -0.001
   391   6 C        3.328     0.688    -0.000
   392   6 C        3.690     0.383    -0.000
   393   7 N        3.729     0.138    -0.000
   394   6 C        3.731     0.119    -0.000
   395   8 O        2.861     3.203    -0.000
   396   7 N        3.690     0.022    -0.000
   397   6 C        3.879     1.126    -0.000
   398   7 N        2.744     1.438    -0.000
   399   6 C        3.449     4.397    -0.000
   400   6 C        3.450     2.200    -0.000
   401   1 H        2.176    11.821    -0.016
   402   1 H        2.142    13.746    -0.018
   403   1 H        2.205    15.622    -0.021
   404   1 H        2.241    10.116    -0.014
   405   1 H        2.363     9.811    -0.013
   406   1 H        2.381     2.914    -0.004
   407   1 H        2.493     4.743    -0.006
   408   1 H        2.641     2.599    -0.003
   409   1 H        2.294    11.257    -0.015
   410   1 H        2.274     9.391    -0.013
   411   1 H        2.437     2.103    -0.003
   412  15 P        3.265     6.184    -0.001
   413   8 O        2.231    11.299    -0.002
   414   8 O        2.237    21.214    -0.003
   415   8 O        2.712     0.208    -0.000
   416   6 C        2.915     0.436    -0.000
   417   6 C        3.290     0.319    -0.000
   418   8 O        3.002     6.207    -0.001
   419   6 C        3.322     0.307    -0.000
   420   8 O        2.660     3.859    -0.001
   421   6 C        3.387     0.339    -0.000
   422   6 C        3.728     0.140    -0.000
   423   7 N        4.112     0.000    -0.000
   424   6 C        3.444     0.262    -0.000
   425   7 N        3.036     7.928    -0.002
   426   6 C        4.741     0.012    -0.000
   427   6 C        4.334     0.000    -0.000
   428   7 N        2.855     0.152    -0.000
   429   7 N        3.790     0.001    -0.000
   430   6 C        3.522     0.364    -0.000
   431   7 N        3.215     4.249    -0.001
   432   6 C        4.756     0.008    -0.000
   433   1 H        2.196    10.528    -0.014
   434   1 H        2.173    12.328    -0.016
   435   1 H        2.197    16.125    -0.022
   436   1 H        2.257     9.063    -0.012
   437   1 H        2.450     4.195    -0.006
   438   1 H        2.458     0.795    -0.001
   439   1 H        2.513     5.308    -0.007
   440   1 H        2.418     2.646    -0.004
   441   1 H        2.740     1.406    -0.002
   442   1 H        2.372    11.863    -0.016
   443   1 H        2.436     8.389    -0.011
   444  15 P        3.219     9.688    -0.001
   445   8 O        2.222    14.121    -0.002
   446   8 O        2.203    23.998    -0.003
   447   8 O        2.660     2.022    -0.000
   448   6 C        2.885     0.454    -0.000
   449   6 C        3.316     0.187    -0.000
   450   8 O        3.071     2.875    -0.000
   451   6 C        3.339     0.067    -0.000
   452   8 O        2.663     4.129    -0.001
   453   6 C        3.378     0.081    -0.000
   454   6 C        3.713     0.275    -0.000
   455   7 N        3.825     0.001    -0.000
   456   6 C        3.732     0.014    -0.000
   457   8 O        2.614     8.223    -0.001
   458   7 N        3.476     0.000    -0.000
   459   6 C        3.665     0.002    -0.000
   460   8 O        2.658     9.029    -0.001
   461   6 C        3.869     0.141    -0.000
   462   6 C        2.788     2.790    -0.000
   463   6 C        3.570     0.416    -0.000
   464   1 H        2.195    10.421    -0.014
   465   1 H        2.141    13.529    -0.018
   466   1 H        2.231    14.385    -0.019
   467   1 H        2.284     8.074    -0.011
   468   1 H        2.402     6.824    -0.009
   469   1 H        2.516     0.016    -0.000
   470   1 H        2.467     7.555    -0.010
   471   1 H        3.254     0.017    -0.000
   472   1 H        2.255     8.379    -0.011
   473   1 H        2.196    11.698    -0.016
   474   1 H        2.146    15.992    -0.021
   475   1 H        2.443     3.882    -0.005
   476  15 P        3.231     9.727    -0.001
   477   8 O        2.217    15.265    -0.002
   478   8 O        2.210    23.381    -0.003
   479   8 O        2.687     0.961    -0.000
   480   6 C        2.892     0.412    -0.000
   481   6 C        3.271     0.256    -0.000
   482   8 O        2.953     6.653    -0.001
   483   6 C        3.309     0.356    -0.000
   484   8 O        2.650     4.728    -0.001
   485   6 C        3.370     0.524    -0.000
   486   6 C        3.686     0.213    -0.000
   487   7 N        3.757     0.030    -0.000
   488   6 C        3.656     0.468    -0.000
   489   8 O        2.696     7.872    -0.001
   490   7 N        3.736     0.000    -0.000
   491   6 C        4.185     0.000    -0.000
   492   7 N        2.931     0.058    -0.000
   493   6 C        3.588     0.008    -0.000
   494   6 C        3.550     0.029    -0.000
   495   1 H        2.192    10.726    -0.014
   496   1 H        2.162    11.170    -0.015
   497   1 H        2.186    16.014    -0.021
   498   1 H        2.237     9.575    -0.013
   499   1 H        2.430     6.401    -0.009
   500   1 H        2.416     1.438    -0.002
   501   1 H        2.501     3.913    -0.005
   502   1 H        2.864     0.713    -0.001
   503   1 H        2.430     4.547    -0.006
   504   1 H        2.281     8.846    -0.012
   505   1 H        2.467     3.718    -0.005
   506  15 P        3.224     9.818    -0.001
   507   8 O        2.224    15.143    -0.002
   508   8 O        2.201    23.812    -0.003
   509   8 O        2.714     0.791    -0.000
   510   6 C        2.928     0.442    -0.000
   511   6 C        3.390     0.185    -0.000
   512   8 O        3.084     1.347    -0.000
   513   6 C        3.389     0.270    -0.000
   514   8 O        2.768     0.217    -0.000
   515   6 C        3.329     0.854    -0.000
   516   6 C        3.803     0.034    -0.000
   517   7 N        3.764     0.000    -0.000
   518   6 C        3.753     0.001    -0.000
   519   8 O        2.702     5.565    -0.001
   520   7 N        3.442     0.000    -0.000
   521   6 C        3.484     0.001    -0.000
   522   8 O        2.539     9.640    -0.001
   523   6 C        3.667     0.387    -0.000
   524   6 C        2.695     3.159    -0.000
   525   6 C        3.521     0.762    -0.000
   526   1 H        2.206    10.400    -0.014
   527   1 H        2.188     9.641    -0.013
   528   1 H        2.269    10.071    -0.013
   529   1 H        2.262     9.207    -0.012
   530   1 H        2.391     6.621    -0.009
   531   1 H        2.334     7.161    -0.010
   532   1 H        2.606     4.403    -0.006
   533   1 H        3.324     0.000    -0.000
   534   1 H        2.130    16.153    -0.022
   535   1 H        2.106    15.605    -0.021
   536   1 H        2.119    15.067    -0.020
   537   1 H        2.457     2.293    -0.003
   538  15 P        3.244     6.907    -0.001
   539   8 O        2.280     9.063    -0.001
   540   8 O        2.185    26.009    -0.004
   541   8 O        2.607     2.690    -0.000
   542   6 C        2.841     0.491    -0.000
   543   6 C        3.172     0.346    -0.000
   544   8 O        2.861     9.299    -0.001
   545   6 C        3.086     1.015    -0.000
   546   8 O        2.282    17.333    -0.002
   547   6 C        3.073     1.251    -0.000
   548   6 C        3.404     0.325    -0.000
   549   7 N        3.508     1.044    -0.000
   550   6 C        3.156     4.803    -0.000
   551   7 N        2.842     8.704    -0.003
   552   6 C        3.948     3.035    -0.000
   553   6 C        3.636     3.548    -0.000
   554   7 N        2.631     3.602    -0.001
   555   7 N        3.195     2.805    -0.001
   556   6 C        3.052     6.195    -0.000
   557   7 N        2.803    11.749    -0.004
   558   6 C        3.849     4.758    -0.000
   559   1 H        2.197    10.505    -0.014
   560   1 H        2.101    15.949    -0.021
   561   1 H        2.149    15.886    -0.021
   562   1 H        2.139    14.750    -0.020
   563   1 H        2.018    14.198    -0.019
   564   1 H        2.282     7.781    -0.010
   565   1 H        2.138    17.910    -0.024
   566   1 H        2.371     8.565    -0.011
   567   1 H        2.293     5.905    -0.008
   568   1 H        2.464     5.055    -0.007
   569   1 H        2.258    10.108    -0.014
   570   1 H        2.233    12.834    -0.017
   571   8 O        2.315     5.567    -0.001
   572   6 C        2.738     0.905    -0.000
   573   6 C        3.142     0.311    -0.000
   574   8 O        2.814     9.534    -0.001
   575   6 C        3.252     0.233    -0.000
   576   8 O        2.609     4.924    -0.001
   577   6 C        3.290     0.229    -0.000
   578   6 C        3.462     0.479    -0.000
   579   7 N        3.396     0.793    -0.000
   580   6 C        3.295     4.487    -0.000
   581   8 O        2.448    12.968    -0.002
   582   7 N        3.025     1.947    -0.001
   583   6 C        3.234     4.025    -0.000
   584   8 O        2.494     9.981    -0.001
   585   6 C        3.408     2.428    -0.000
   586   6 C        2.645     3.564    -0.000
   587   6 C        3.223     4.307    -0.000
   588   1 H        2.065    18.580    -0.025
   589   1 H        2.075    17.398    -0.023
   590   1 H        2.141    16.485    -0.022
   591   1 H        2.253     7.811    -0.010
   592   1 H        2.383     5.488    -0.007
   593   1 H        2.450     0.048    -0.000
   594   1 H        2.368     8.000    -0.011
   595   1 H        2.779     2.686    -0.004
   596   1 H        2.116    12.811    -0.017
   597   1 H        2.065    19.200    -0.026
   598   1 H        2.088    16.847    -0.023
   599   1 H        2.306     3.778    -0.005
   600   1 H        1.930    22.855    -0.031
   601  15 P        3.202     8.201    -0.001
   602   8 O        2.216    12.868    -0.002
   603   8 O        2.196    24.209    -0.003
   604   8 O        2.649     1.353    -0.000
   605   6 C        2.861     0.498    -0.000
   606   6 C        3.248     0.250    -0.000
   607   8 O        2.977     3.892    -0.001
   608   6 C        3.293     0.250    -0.000
   609   8 O        2.660     3.424    -0.000
   610   6 C        3.286     0.566    -0.000
   611   6 C        3.619     0.133    -0.000
   612   7 N        3.846     0.029    -0.000
   613   6 C        3.255     4.360    -0.000
   614   7 N        2.882    11.836    -0.004
   615   6 C        4.330     0.769    -0.000
   616   6 C        4.038     0.056    -0.000
   617   7 N        2.749     0.317    -0.000
   618   7 N        3.646     0.000    -0.000
   619   6 C        3.401     0.625    -0.000
   620   7 N        3.058     7.073    -0.002
   621   6 C        4.387     0.053    -0.000
   622   1 H        2.166    10.933    -0.015
   623   1 H        2.133    13.052    -0.017
   624   1 H        2.188    15.821    -0.021
   625   1 H        2.253     9.493    -0.013
   626   1 H        2.355     8.606    -0.011
   627   1 H        2.389     2.558    -0.003
   628   1 H        2.481     7.170    -0.010
   629   1 H        2.295    10.243    -0.014
   630   1 H        2.602     1.696    -0.002
   631   1 H        2.284    12.319    -0.016
   632   1 H        2.465     6.063    -0.008
   633  15 P        3.239     6.183    -0.001
   634   8 O        2.226    11.204    -0.002
   635   8 O        2.236    20.697    -0.003
   636   8 O        2.667     0.350    -0.000
   637   6 C        2.863     0.497    -0.000
   638   6 C        3.243     0.314    -0.000
   639   8 O        2.904    10.645    -0.001
   640   6 C        3.301     0.357    -0.000
   641   8 O        2.658     4.681    -0.001
   642   6 C        3.355     0.623    -0.000
   643   6 C        3.669     0.138    -0.000
   644   7 N        3.972     0.292    -0.000
   645   6 C        3.419     1.212    -0.000
   646   7 N        3.060     5.418    -0.002
   647   6 C        4.435     0.268    -0.000
   648   6 C        3.838     0.041    -0.000
   649   8 O        2.833     3.580    -0.000
   650   7 N        3.662     0.020    -0.000
   651   6 C        3.865     2.299    -0.000
   652   7 N        2.724     3.704    -0.001
   653   7 N        3.222     6.340    -0.002
   654   6 C        4.461     3.233    -0.000
   655   1 H        2.154    13.147    -0.018
   656   1 H        2.143    12.993    -0.017
   657   1 H        2.181    16.029    -0.021
   658   1 H        2.231     9.937    -0.013
   659   1 H        2.420     6.266    -0.008
   660   1 H        2.441     1.324    -0.002
   661   1 H        2.494     4.494    -0.006
   662   1 H        2.415     4.235    -0.006
   663   1 H        3.447     0.000     0.000
   664   1 H        2.240    22.169    -0.030
   665   1 H        2.597     1.955    -0.003
   666  15 P        3.214     7.490    -0.001
   667   8 O        2.186    24.409    -0.003
   668   8 O        2.235    11.672    -0.002
   669   8 O        2.677     1.062    -0.000
   670   6 C        2.885     0.528    -0.000
   671   6 C        3.372     0.236    -0.000
   672   8 O        3.059     4.352    -0.001
   673   6 C        3.394     0.239    -0.000
   674   8 O        2.779     0.896    -0.000
   675   6 C        3.365     0.859    -0.000
   676   6 C        3.819     0.179    -0.000
   677   7 N        4.130     0.001    -0.000
   678   6 C        3.471     0.518    -0.000
   679   7 N        3.060     8.362    -0.003
   680   6 C        4.818     0.007    -0.000
   681   6 C        4.299     0.000    -0.000
   682   7 N        2.810     0.559    -0.000
   683   7 N        3.733     0.012    -0.000
   684   6 C        3.475     0.360    -0.000
   685   7 N        3.213     5.810    -0.002
   686   6 C        4.813     0.019    -0.000
   687   1 H        2.181    11.275    -0.015
   688   1 H        2.138    12.466    -0.017
   689   1 H        2.266     8.994    -0.012
   690   1 H        2.265     8.104    -0.011
   691   1 H        2.399     6.431    -0.009
   692   1 H        2.381     3.208    -0.004
   693   1 H        2.648     2.239    -0.003
   694   1 H        2.400     6.702    -0.009
   695   1 H        2.715     1.657    -0.002
   696   1 H        2.316    15.672    -0.021
   697   1 H        2.412     7.044    -0.009
   698  15 P        3.237     7.894    -0.001
   699   8 O        2.238    17.970    -0.002
   700   8 O        2.218    14.935    -0.002
   701   8 O        2.560     5.093    -0.001
   702   6 C        2.828     0.682    -0.000
   703   6 C        3.297     0.155    -0.000
   704   8 O        3.022     3.356    -0.000
   705   6 C        3.342     0.019    -0.000
   706   8 O        2.646     4.701    -0.001
   707   6 C        3.338     0.139    -0.000
   708   6 C        3.685     0.315    -0.000
   709   7 N        3.741     0.003    -0.000
   710   6 C        3.703     0.115    -0.000
   711   8 O        2.591     9.654    -0.001
   712   7 N        3.492     0.000    -0.000
   713   6 C        3.666     0.012    -0.000
   714   8 O        2.690     6.219    -0.001
   715   6 C        3.817     0.284    -0.000
   716   6 C        2.760     2.876    -0.000
   717   6 C        3.512     0.936    -0.000
   718   1 H        2.179    10.316    -0.014
   719   1 H        2.098    18.429    -0.025
   720   1 H        2.250    13.729    -0.018
   721   1 H        2.332     4.750    -0.006
   722   1 H        2.370     8.243    -0.011
   723   1 H        2.464     0.254    -0.000
   724   1 H        2.491     6.740    -0.009
   725   1 H        3.258     0.012    -0.000
   726   1 H        2.214     9.244    -0.012
   727   1 H        2.167    13.312    -0.018
   728   1 H        2.134    17.265    -0.023
   729   1 H        2.384     4.576    -0.006
   730  15 P        3.214    10.008    -0.001
   731   8 O        2.177    25.147    -0.003
   732   8 O        2.238    15.135    -0.002
   733   8 O        2.647     1.824    -0.000
   734   6 C        2.868     0.428    -0.000
   735   6 C        3.293     0.201    -0.000
   736   8 O        3.017     4.853    -0.001
   737   6 C        3.347     0.158    -0.000
   738   8 O        2.676     4.410    -0.001
   739   6 C        3.356     0.259    -0.000
   740   6 C        3.695     0.524    -0.000
   741   7 N        3.959     0.100    -0.000
   742   6 C        3.379     3.255    -0.000
   743   7 N        3.005     9.172    -0.003
   744   6 C        4.433     0.136    -0.000
   745   6 C        3.849     0.033    -0.000
   746   8 O        2.714     5.639    -0.001
   747   7 N        3.942     0.000     0.000
   748   6 C        4.417     0.004    -0.000
   749   7 N        2.961     0.318    -0.000
   750   7 N        3.456     2.975    -0.001
   751   6 C        4.636     0.291    -0.000
   752   1 H        2.181    11.700    -0.016
   753   1 H        2.135    14.247    -0.019
   754   1 H        2.223    14.548    -0.019
   755   1 H        2.263     9.309    -0.012
   756   1 H        2.362     9.484    -0.013
   757   1 H        2.458     1.056    -0.001
   758   1 H        2.538     4.415    -0.006
   759   1 H        2.386     6.241    -0.008
   760   1 H        3.641     0.000    -0.000
   761   1 H        2.395    12.299    -0.016
   762   1 H        2.836     1.663    -0.002
   763  15 P        3.241     9.889    -0.001
   764   8 O        2.182    25.146    -0.003
   765   8 O        2.262    14.573    -0.002
   766   8 O        2.684     0.923    -0.000
   767   6 C        2.899     0.424    -0.000
   768   6 C        3.313     0.254    -0.000
   769   8 O        3.073     2.556    -0.000
   770   6 C        3.353     0.300    -0.000
   771   8 O        2.681     5.195    -0.001
   772   6 C        3.411     0.578    -0.000
   773   6 C        3.804     0.012    -0.000
   774   7 N        4.208     0.005    -0.000
   775   6 C        3.451     3.469    -0.000
   776   7 N        3.021    10.107    -0.003
   777   6 C        4.786     0.045    -0.000
   778   6 C        4.289     0.001    -0.000
   779   7 N        2.769     0.799    -0.000
   780   7 N        3.782     0.000    -0.000
   781   6 C        3.534     0.292    -0.000
   782   7 N        3.229     5.333    -0.002
   783   6 C        4.832     0.007    -0.000
   784   1 H        2.209     9.527    -0.013
   785   1 H        2.155    13.106    -0.018
   786   1 H        2.211    15.988    -0.021
   787   1 H        2.261     9.752    -0.013
   788   1 H        2.412     8.972    -0.012
   789   1 H        2.513     0.615    -0.001
   790   1 H        2.530     4.795    -0.006
   791   1 H        2.432     3.927    -0.005
   792   1 H        2.651     1.989    -0.003
   793   1 H        2.286    17.098    -0.023
   794   1 H        2.476     6.830    -0.009
   795  15 P        3.296     7.069    -0.001
   796   8 O        2.250    14.772    -0.002
   797   8 O        2.234    20.562    -0.003
   798   8 O        2.861     0.000     0.000
   799   6 C        2.965     0.572    -0.000
   800   6 C        3.304     0.395    -0.000
   801   8 O        2.968     9.800    -0.001
   802   6 C        3.318     0.377    -0.000
   803   8 O        2.635     4.943    -0.001
   804   6 C        3.347     0.401    -0.000
   805   6 C        3.774     0.031    -0.000
   806   7 N        4.094     0.254    -0.000
   807   6 C        3.459     0.749    -0.000
   808   7 N        3.069     5.580    -0.002
   809   6 C        4.745     0.005    -0.000
   810   6 C        4.282     0.000    -0.000
   811   7 N        2.845     0.191    -0.000
   812   7 N        3.659     0.002    -0.000
   813   6 C        3.360     1.191    -0.000
   814   7 N        3.080     8.977    -0.003
   815   6 C        4.618     1.211    -0.000
   816   1 H        2.205    11.601    -0.016
   817   1 H        2.261     9.154    -0.012
   818   1 H        2.187    16.267    -0.022
   819   1 H        2.260     7.602    -0.010
   820   1 H        2.412     6.323    -0.008
   821   1 H        2.418     2.498    -0.003
   822   1 H        2.641     1.632    -0.002
   823   1 H        2.421     4.713    -0.006
   824   1 H        2.677     2.173    -0.003
   825   1 H        2.365    11.941    -0.016
   826   1 H        2.397     8.249    -0.011
   827  15 P        3.216     9.747    -0.001
   828   8 O        2.214    15.217    -0.002
   829   8 O        2.202    23.706    -0.003
   830   8 O        2.658     1.796    -0.000
   831   6 C        2.877     0.429    -0.000
   832   6 C        3.267     0.174    -0.000
   833   8 O        3.003     4.899    -0.001
   834   6 C        3.300     0.122    -0.000
   835   8 O        2.643     4.762    -0.001
   836   6 C        3.250     0.774    -0.000
   837   6 C        3.591     0.456    -0.000
   838   7 N        3.672     0.353    -0.000
   839   6 C        3.534     2.084    -0.000
   840   8 O        2.647    11.519    -0.002
   841   7 N        3.603     0.001    -0.000
   842   6 C        3.893     0.781    -0.000
   843   7 N        2.747     0.930    -0.000
   844   6 C        3.454     4.413    -0.000
   845   6 C        3.504     2.252    -0.000
   846   1 H        2.187    11.437    -0.015
   847   1 H        2.148    12.537    -0.017
   848   1 H        2.210    15.102    -0.020
   849   1 H        2.281     7.058    -0.009
   850   1 H        2.349     9.886    -0.013
   851   1 H        2.296     7.994    -0.011
   852   1 H        2.411     8.403    -0.011
   853   1 H        2.658     2.109    -0.003
   854   1 H        2.267    16.397    -0.022
   855   1 H        2.239    12.206    -0.016
   856   1 H        2.473     3.378    -0.005
   857  15 P        3.226     9.000    -0.001
   858   8 O        2.232    15.120    -0.002
   859   8 O        2.208    23.631    -0.003
   860   8 O        2.653     1.264    -0.000
   861   6 C        2.919     0.434    -0.000
   862   6 C        3.404     0.254    -0.000
   863   8 O        2.932    10.587    -0.001
   864   6 C        3.694     0.343    -0.000
   865   6 C        3.311     0.860    -0.000
   866   6 C        3.424     0.269    -0.000
   867   8 O        2.820     0.362    -0.000
   868   1 H        2.177    11.821    -0.016
   869   1 H        2.266     3.645    -0.005
   870   1 H        2.373     5.370    -0.007
   871   1 H        2.769     0.994    -0.001
   872   1 H        2.294    12.434    -0.017
   873   1 H        2.373     5.320    -0.007
   874   1 H        2.274     9.849    -0.013
   875  15 P        3.285     7.964    -0.001
   876   8 O        2.308     9.334    -0.001
   877   8 O        2.189    28.761    -0.004
   878   8 O        2.660     3.410    -0.000
   879   6 C        2.909     0.388    -0.000
   880   6 C        3.306     0.245    -0.000
   881   8 O        3.013     5.730    -0.001
   882   6 C        3.354     0.348    -0.000
   883   8 O        2.676     4.711    -0.001
   884   6 C        3.452     0.278    -0.000
   885   6 C        3.735     0.421    -0.000
   886   7 N        3.748     0.045    -0.000
   887   6 C        3.485     0.192    -0.000
   888   8 O        2.479    14.482    -0.002
   889   7 N        3.105     0.048    -0.000
   890   6 C        3.549     0.001    -0.000
   891   8 O        2.523     9.876    -0.001
   892   6 C        4.022     0.000     0.000
   893   6 C        2.933     1.490    -0.000
   894   6 C        3.646     0.068    -0.000
   895   1 H        2.285     5.361    -0.007
   896   1 H        2.129    16.019    -0.021
   897   1 H        2.195    15.987    -0.021
   898   1 H        2.259     9.110    -0.012
   899   1 H        2.454     4.740    -0.006
   900   1 H        2.535     0.021    -0.000
   901   1 H        2.522     5.348    -0.007
   902   1 H        2.357    14.269    -0.019
   903   1 H        2.302     7.653    -0.010
   904   1 H        2.441     1.035    -0.001
   905   1 H        2.298     8.454    -0.011
   906   1 H        2.514     1.188    -0.002
   907  15 P        3.246     8.992    -0.001
   908   8 O        2.223    14.979    -0.002
   909   8 O        2.214    21.537    -0.003
   910   8 O        2.736     0.419    -0.000
   911   6 C        2.954     0.423    -0.000
   912   6 C        3.329     0.084    -0.000
   913   8 O        3.053     2.819    -0.000
   914   6 C        3.240     0.706    -0.000
   915   8 O        2.557     9.214    -0.001
   916   6 C        3.228     1.158    -0.000
   917   6 C        3.688     0.028    -0.000
   918   7 N        3.890     0.012    -0.000
   919   6 C        3.237     3.921    -0.000
   920   7 N        2.855    13.160    -0.004
   921   6 C        4.348     0.517    -0.000
   922   6 C        4.017     0.088    -0.000
   923   7 N        2.708     1.054    -0.000
   924   7 N        3.651     0.000     0.000
   925   6 C        3.426     0.347    -0.000
   926   7 N        3.126     6.410    -0.002
   927   6 C        4.483     0.000     0.000
   928   1 H        2.271     5.479    -0.007
   929   1 H        2.194    10.291    -0.014
   930   1 H        2.254     9.641    -0.013
   931   1 H        2.227    12.587    -0.017
   932   1 H        2.344     7.990    -0.011
   933   1 H        2.291     7.386    -0.010
   934   1 H        2.579     2.396    -0.003
   935   1 H        2.278     9.833    -0.013
   936   1 H        2.587     2.047    -0.003
   937   1 H        2.239    19.780    -0.026
   938   1 H        2.412     8.066    -0.011
   939  15 P        3.238     6.555    -0.001
   940   8 O        2.234    20.592    -0.003
   941   8 O        2.232    10.330    -0.001
   942   8 O        2.681     3.160    -0.000
   943   6 C        2.974     0.227    -0.000
   944   6 C        3.300     0.304    -0.000
   945   8 O        2.919    10.786    -0.001
   946   6 C        3.308     0.311    -0.000
   947   8 O        2.641     5.063    -0.001
   948   6 C        3.324     0.526    -0.000
   949   6 C        3.685     0.109    -0.000
   950   7 N        3.963     0.219    -0.000
   951   6 C        3.355     1.914    -0.000
   952   7 N        3.016     8.443    -0.003
   953   6 C        4.506     0.010    -0.000
   954   6 C        3.907     0.024    -0.000
   955   8 O        2.815     5.049    -0.001
   956   7 N        3.749     0.000     0.000
   957   6 C        3.979     0.869    -0.000
   958   7 N        2.751     2.061    -0.001
   959   7 N        3.291     5.906    -0.002
   960   6 C        4.598     1.065    -0.000
   961   1 H        2.210     9.859    -0.013
   962   1 H        2.366     1.865    -0.002
   963   1 H        2.186    15.139    -0.020
   964   1 H        2.249     9.864    -0.013
   965   1 H        2.385     8.463    -0.011
   966   1 H        2.388     2.782    -0.004
   967   1 H        2.579     2.767    -0.004
   968   1 H        2.331     9.036    -0.012
   969   1 H        3.504     0.000     0.000
   970   1 H        2.254    20.285    -0.027
   971   1 H        2.622     3.179    -0.004
   972  15 P        3.209     8.397    -0.001
   973   8 O        2.176    25.240    -0.003
   974   8 O        2.238    10.335    -0.001
   975   8 O        2.656     1.938    -0.000
   976   6 C        2.875     0.486    -0.000
   977   6 C        3.330     0.177    -0.000
   978   8 O        3.118     2.018    -0.000
   979   6 C        3.346     0.041    -0.000
   980   8 O        2.675     3.865    -0.001
   981   6 C        3.414     0.078    -0.000
   982   6 C        3.747     0.067    -0.000
   983   7 N        4.214     0.000     0.000
   984   6 C        3.506     0.808    -0.000
   985   7 N        3.109     6.352    -0.002
   986   6 C        5.020     0.000     0.000
   987   6 C        4.411     0.000     0.000
   988   7 N        2.833     0.458    -0.000
   989   7 N        3.761     0.017    -0.000
   990   6 C        3.463     0.549    -0.000
   991   7 N        3.186     5.155    -0.002
   992   6 C        4.886     0.002    -0.000
   993   1 H        2.197    10.833    -0.014
   994   1 H        2.132    14.667    -0.020
   995   1 H        2.248    14.148    -0.019
   996   1 H        2.291     7.637    -0.010
   997   1 H        2.412     6.342    -0.008
   998   1 H        2.559     0.005    -0.000
   999   1 H        2.492     7.326    -0.010
  1000   1 H        2.392     7.018    -0.009
  1001   1 H        2.709     1.886    -0.003
  1002   1 H        2.336    14.326    -0.019
  1003   1 H        2.411     8.160    -0.011
  1004  15 P        3.223     7.858    -0.001
  1005   8 O        2.219    11.423    -0.002
  1006   8 O        2.213    23.299    -0.003
  1007   8 O        2.662     1.486    -0.000
  1008   6 C        2.881     0.462    -0.000
  1009   6 C        3.294     0.209    -0.000
  1010   8 O        3.004     5.196    -0.001
  1011   6 C        3.342     0.271    -0.000
  1012   8 O        2.680     4.445    -0.001
  1013   6 C        3.342     0.584    -0.000
  1014   6 C        3.707     0.422    -0.000
  1015   7 N        3.775     0.022    -0.000
  1016   6 C        3.751     0.086    -0.000
  1017   8 O        2.814     5.109    -0.001
  1018   7 N        3.781     0.000     0.000
  1019   6 C        4.013     0.030    -0.000
  1020   7 N        2.799     0.383    -0.000
  1021   6 C        3.445     3.268    -0.000
  1022   6 C        3.488     1.968    -0.000
  1023   1 H        2.188    11.127    -0.015
  1024   1 H        2.130    14.491    -0.019
  1025   1 H        2.203    15.667    -0.021
  1026   1 H        2.274     7.402    -0.010
  1027   1 H        2.377     8.842    -0.012
  1028   1 H        2.395     2.552    -0.003
  1029   1 H        2.507     3.857    -0.005
  1030   1 H        2.718     1.631    -0.002
  1031   1 H        2.285    16.112    -0.022
  1032   1 H        2.218    13.050    -0.017
  1033   1 H        2.446     4.495    -0.006
  1034  15 P        3.256     7.308    -0.001
  1035   8 O        2.190    24.867    -0.003
  1036   8 O        2.272    11.762    -0.002
  1037   8 O        2.719     0.095    -0.000
  1038   6 C        2.907     0.481    -0.000
  1039   6 C        3.295     0.334    -0.000
  1040   8 O        2.988     5.074    -0.001
  1041   6 C        3.377     0.370    -0.000
  1042   8 O        2.680     4.409    -0.001
  1043   6 C        3.444     0.041    -0.000
  1044   6 C        3.765     0.086    -0.000
  1045   7 N        4.135     0.002    -0.000
  1046   6 C        3.486     0.190    -0.000
  1047   7 N        3.074     6.553    -0.002
  1048   6 C        4.810     0.007    -0.000
  1049   6 C        4.371     0.000    -0.000
  1050   7 N        2.874     0.119    -0.000
  1051   7 N        3.814     0.001    -0.000
  1052   6 C        3.552     0.251    -0.000
  1053   7 N        3.259     3.666    -0.001
  1054   6 C        4.795     0.001    -0.000
  1055   1 H        2.190    10.275    -0.014
  1056   1 H        2.163    12.395    -0.017
  1057   1 H        2.192    16.096    -0.022
  1058   1 H        2.302     7.163    -0.010
  1059   1 H        2.481     3.404    -0.005
  1060   1 H        2.506     0.340    -0.000
  1061   1 H        2.557     3.440    -0.005
  1062   1 H        2.450     2.190    -0.003
  1063   1 H        2.731     1.252    -0.002
  1064   1 H        2.411     9.783    -0.013
  1065   1 H        2.461     7.822    -0.010
  1066  15 P        3.226    10.240    -0.001
  1067   8 O        2.174    25.717    -0.004
  1068   8 O        2.253    14.763    -0.002
  1069   8 O        2.684     0.930    -0.000
  1070   6 C        2.892     0.534    -0.000
  1071   6 C        3.311     0.236    -0.000
  1072   8 O        3.073     3.009    -0.000
  1073   6 C        3.353     0.229    -0.000
  1074   8 O        2.651     4.631    -0.001
  1075   6 C        3.303     0.351    -0.000
  1076   6 C        3.728     0.171    -0.000
  1077   7 N        3.793     0.000    -0.000
  1078   6 C        3.729     0.015    -0.000
  1079   8 O        2.611     7.238    -0.001
  1080   7 N        3.496     0.000    -0.000
  1081   6 C        3.634     0.005    -0.000
  1082   8 O        2.640     7.168    -0.001
  1083   6 C        3.845     0.170    -0.000
  1084   6 C        2.768     2.782    -0.000
  1085   6 C        3.568     1.040    -0.000
  1086   1 H        2.202    10.615    -0.014
  1087   1 H        2.135    14.173    -0.019
  1088   1 H        2.203    15.933    -0.021
  1089   1 H        2.304     6.361    -0.008
  1090   1 H        2.366     8.132    -0.011
  1091   1 H        2.357     1.041    -0.001
  1092   1 H        2.509     5.815    -0.008
  1093   1 H        3.347     0.000    -0.000
  1094   1 H        2.120    17.186    -0.023
  1095   1 H        2.232     9.214    -0.012
  1096   1 H        2.193    11.240    -0.015
  1097   1 H        2.477     3.166    -0.004
  1098  15 P        3.202     9.641    -0.001
  1099   8 O        2.179    24.537    -0.003
  1100   8 O        2.241    14.214    -0.002
  1101   8 O        2.642     0.640    -0.000
  1102   6 C        2.827     0.524    -0.000
  1103   6 C        3.177     0.338    -0.000
  1104   8 O        2.881     7.073    -0.001
  1105   6 C        3.134     0.602    -0.000
  1106   8 O        2.304    13.009    -0.002
  1107   6 C        3.134     0.938    -0.000
  1108   6 C        3.444     0.221    -0.000
  1109   7 N        3.585     0.506    -0.000
  1110   6 C        3.207     4.591    -0.000
  1111   7 N        2.908     8.318    -0.003
  1112   6 C        4.109     3.232    -0.000
  1113   6 C        3.736     3.549    -0.000
  1114   7 N        2.654     3.755    -0.001
  1115   7 N        3.252     2.657    -0.001
  1116   6 C        3.083     5.937    -0.000
  1117   7 N        2.832    11.273    -0.003
  1118   6 C        3.949     3.148    -0.000
  1119   1 H        2.146    12.908    -0.017
  1120   1 H        2.115    14.314    -0.019
  1121   1 H        2.152    16.219    -0.022
  1122   1 H        2.161    13.982    -0.019
  1123   1 H        1.947    20.199    -0.027
  1124   1 H        2.325     5.168    -0.007
  1125   1 H        2.168    15.448    -0.021
  1126   1 H        2.384    10.333    -0.014
  1127   1 H        2.292     8.978    -0.012
  1128   1 H        2.480     5.278    -0.007
  1129   1 H        2.260    12.453    -0.017
  1130   1 H        2.243    12.620    -0.017
  1131   1 H        1.903    21.384    -0.029
  1132   1 H        1.897    23.769    -0.032
  1133   1 H        1.902    22.907    -0.031
  1134   1 H        1.915    20.347    -0.027
  1135   1 H        1.988    14.712    -0.020
  1136   1 H        2.026    12.127    -0.016
  1137   1 H        2.007    13.450    -0.018
  1138   1 H        1.945    16.308    -0.022
  1139   1 H        1.981    15.132    -0.020
  1140   1 H        2.011    11.661    -0.016
  1141   1 H        1.943    16.904    -0.023
  1142   1 H        1.896    23.808    -0.032
  1143   1 H        1.897    23.687    -0.032
  1144   1 H        1.893    23.940    -0.032
  1145   1 H        1.955    17.661    -0.024
  1146   1 H        2.011    13.334    -0.018
  1147   1 H        1.973    15.438    -0.021
  1148   1 H        1.893    23.661    -0.032
  1149   1 H        2.087     6.942    -0.009
  1150   1 H        1.927    18.864    -0.025
  1151   1 H        1.967    15.747    -0.021
  1152   1 H        1.962    15.322    -0.020
  1153   1 H        1.955    15.820    -0.021
  1154   1 H        1.960    16.416    -0.022
  1155   1 H        1.951    16.466    -0.022
  1156   1 H        1.891    23.815    -0.032
  1157   1 H        1.897    23.915    -0.032
  1158   1 H        1.892    23.941    -0.032
  1159   1 H        1.897    23.958    -0.032
  1160   1 H        1.901    23.867    -0.032
  1161   1 H        1.931    18.667    -0.025
  1162   1 H        1.946    16.628    -0.022
  1163   1 H        1.967    15.389    -0.021
  1164   1 H        1.977    14.711    -0.020

 total SASA / Å² :     6964.131

     #   Z          covCN         q      C6AA      α(0)
     1   8 O        1.654    -0.488    22.635     6.423
     2   6 C        3.673     0.058    19.837     6.383
     3   6 C        3.787     0.096    19.018     6.211
     4   8 O        1.701    -0.312    19.202     5.916
     5   6 C        3.920     0.112    18.691     6.144
     6   8 O        1.655    -0.353    19.963     6.032
     7   6 C        3.819    -0.091    22.210     6.707
     8   6 C        3.733     0.171    17.949     6.047
     9   7 N        2.737    -0.073    22.656     7.069
    10   6 C        2.701     0.323    21.515     7.592
    11   8 O        0.859    -0.508    23.970     6.564
    12   7 N        2.696    -0.189    25.094     7.440
    13   6 C        2.761     0.275    22.354     7.743
    14   8 O        0.859    -0.461    22.931     6.420
    15   6 C        2.950    -0.032    28.797     8.802
    16   6 C        3.755    -0.131    23.082     6.850
    17   6 C        2.847     0.022    27.519     8.597
    18   1 H        0.925     0.069     2.101     2.267
    19   1 H        0.925     0.049     2.334     2.389
    20   1 H        0.924     0.071     2.079     2.255
    21   1 H        0.925     0.073     2.050     2.239
    22   1 H        0.925     0.089     1.889     2.150
    23   1 H        0.925     0.064     2.148     2.292
    24   1 H        0.925     0.067     2.114     2.274
    25   1 H        0.860     0.242     0.914     1.498
    26   1 H        0.924     0.080     1.982     2.202
    27   1 H        0.924     0.084     1.936     2.176
    28   1 H        0.925     0.084     1.933     2.174
    29   1 H        0.926     0.123     1.592     1.973
    30   1 H        0.805     0.358     0.571     1.187
    31  15 P        3.666     0.736   131.495    20.599
    32   8 O        1.614    -0.385    20.588     6.124
    33   8 O        0.808    -0.582    25.707     6.796
    34   8 O        1.656    -0.326    19.463     5.956
    35   6 C        3.850     0.054    19.640     6.303
    36   6 C        3.807     0.078    19.279     6.251
    37   8 O        1.703    -0.314    19.242     5.922
    38   6 C        3.956     0.104    18.808     6.162
    39   8 O        1.659    -0.344    19.800     6.007
    40   6 C        3.829    -0.094    22.265     6.714
    41   6 C        3.765     0.173    17.866     6.025
    42   7 N        2.829    -0.076    22.722     7.080
    43   6 C        3.173     0.091    25.618     8.267
    44   7 N        1.862    -0.276    28.007     7.844
    45   6 C        3.235     0.008    26.980     8.429
    46   6 C        2.901     0.174    24.267     8.077
    47   7 N        2.670    -0.248    26.466     7.641
    48   7 N        1.867    -0.327    29.327     8.027
    49   6 C        2.928     0.157    24.614     8.136
    50   7 N        1.827    -0.344    29.774     8.086
    51   6 C        3.130     0.142    24.722     8.140
    52   1 H        0.924     0.103     1.759     2.074
    53   1 H        0.924     0.072     2.061     2.245
    54   1 H        0.925     0.076     2.019     2.222
    55   1 H        0.924     0.071     2.078     2.254
    56   1 H        0.924     0.091     1.874     2.141
    57   1 H        0.925     0.091     1.871     2.139
    58   1 H        0.925     0.064     2.153     2.295
    59   1 H        0.926     0.080     1.984     2.202
    60   1 H        0.860     0.242     0.915     1.498
    61   1 H        0.860     0.233     0.952     1.528
    62   1 H        0.926     0.029     2.595     2.519
    63  15 P        3.726     0.735   131.515    20.600
    64   8 O        1.614    -0.374    20.371     6.092
    65   8 O        0.808    -0.576    25.566     6.778
    66   8 O        1.656    -0.308    19.150     5.907
    67   6 C        3.877     0.052    19.662     6.305
    68   6 C        3.825     0.090    19.081     6.216
    69   8 O        1.702    -0.315    19.252     5.924
    70   6 C        3.908     0.108    18.762     6.157
    71   8 O        1.657    -0.337    19.666     5.987
    72   6 C        3.822    -0.094    22.278     6.717
    73   6 C        3.767     0.173    17.874     6.026
    74   7 N        2.737    -0.076    22.720     7.079
    75   6 C        2.700     0.329    21.405     7.572
    76   8 O        0.859    -0.491    23.584     6.511
    77   7 N        2.698    -0.194    25.217     7.458
    78   6 C        2.760     0.279    22.274     7.729
    79   8 O        0.859    -0.441    22.523     6.363
    80   6 C        2.949    -0.034    28.843     8.808
    81   6 C        3.752    -0.133    23.120     6.857
    82   6 C        2.844     0.015    27.663     8.620
    83   1 H        0.924     0.089     1.884     2.147
    84   1 H        0.925     0.107     1.725     2.054
    85   1 H        0.924     0.080     1.977     2.199
    86   1 H        0.925     0.074     2.043     2.235
    87   1 H        0.925     0.078     2.003     2.213
    88   1 H        0.925     0.074     2.042     2.235
    89   1 H        0.924     0.068     2.112     2.273
    90   1 H        0.860     0.233     0.952     1.529
    91   1 H        0.925     0.096     1.822     2.111
    92   1 H        0.925     0.087     1.909     2.160
    93   1 H        0.925     0.076     2.019     2.222
    94   1 H        0.926     0.107     1.720     2.051
    95  15 P        3.692     0.732   131.606    20.608
    96   8 O        1.614    -0.380    20.482     6.108
    97   8 O        0.808    -0.563    25.251     6.736
    98   8 O        1.657    -0.342    19.765     6.002
    99   6 C        3.879     0.054    19.631     6.300
   100   6 C        3.800     0.091    19.081     6.219
   101   8 O        1.702    -0.324    19.419     5.950
   102   6 C        3.919     0.108    18.748     6.154
   103   8 O        1.657    -0.335    19.626     5.980
   104   6 C        3.826    -0.094    22.272     6.715
   105   6 C        3.739     0.169    17.957     6.047
   106   7 N        2.824    -0.064    22.475     7.041
   107   6 C        3.148     0.089    25.773     8.305
   108   7 N        1.870    -0.288    28.319     7.888
   109   6 C        3.205    -0.004    27.525     8.545
   110   6 C        2.768     0.267    22.488     7.766
   111   8 O        0.859    -0.481    23.361     6.480
   112   7 N        2.711    -0.202    25.391     7.484
   113   6 C        2.841     0.243    22.936     7.849
   114   7 N        2.664    -0.277    27.154     7.739
   115   7 N        1.846    -0.363    30.314     8.160
   116   6 C        3.092     0.121    25.232     8.233
   117   1 H        0.924     0.086     1.921     2.167
   118   1 H        0.924     0.085     1.928     2.171
   119   1 H        0.924     0.090     1.875     2.141
   120   1 H        0.924     0.072     2.062     2.245
   121   1 H        0.924     0.080     1.979     2.200
   122   1 H        0.925     0.079     1.991     2.207
   123   1 H        0.924     0.074     2.039     2.233
   124   1 H        0.926     0.058     2.225     2.332
   125   1 H        0.860     0.236     0.939     1.518
   126   1 H        0.860     0.244     0.906     1.491
   127   1 H        0.860     0.244     0.906     1.491
   128  15 P        3.701     0.740   131.331    20.586
   129   8 O        1.614    -0.376    20.421     6.099
[...]
                           901 H    0.950
   886   7 N    3.569 --   894 C    1.157   887 C    1.120   885 C    0.955
                           888 O    0.133
   887   6 C    3.959 --   888 O    1.612   889 N    1.143   886 N    1.120
   888   8 O    1.955 --   887 C    1.612   886 N    0.133   889 N    0.129
   889   7 N    3.522 --   887 C    1.143   890 C    1.138   902 H    0.907
                           891 O    0.137   888 O    0.129
   890   6 C    3.939 --   891 O    1.629   889 N    1.138   892 C    1.080
   891   8 O    1.950 --   890 C    1.629   889 N    0.137
   892   6 C    3.980 --   894 C    1.659   890 C    1.080   893 C    1.021
   893   6 C    3.983 --   892 C    1.021   903 H    0.977   904 H    0.967
                           905 H    0.964
   894   6 C    3.950 --   892 C    1.659   886 N    1.157   906 H    0.946
   895   1 H    0.992 --   879 C    0.953
   896   1 H    0.989 --   879 C    0.962
   897   1 H    0.988 --   880 C    0.948
   898   1 H    0.993 --   882 C    0.958
   899   1 H    0.993 --   884 C    0.966
   900   1 H    0.996 --   884 C    0.969
   901   1 H    0.994 --   885 C    0.950
   902   1 H    0.940 --   889 N    0.907
   903   1 H    0.993 --   893 C    0.977
   904   1 H    0.993 --   893 C    0.967
   905   1 H    0.993 --   893 C    0.964
   906   1 H    0.986 --   894 C    0.946
   907  15 P    5.437 --   909 O    1.780   908 O    1.365   883 O    1.118
                           910 O    1.103
   908   8 O    2.290 --   907 P    1.365  1141 H    0.759
   909   8 O    1.991 --   907 P    1.780
   910   8 O    2.244 --   907 P    1.103   911 C    0.941
   911   6 C    3.928 --   912 C    0.979   928 H    0.964   929 H    0.962
                           910 O    0.941
   912   6 C    3.944 --   911 C    0.979   914 C    0.972   913 O    0.971
                           930 H    0.947
   913   8 O    2.081 --   912 C    0.971   917 C    0.969
   914   6 C    3.926 --   916 C    0.991   912 C    0.972   931 H    0.953
                           915 O    0.933
   915   8 O    2.279 --   939 P    1.123   914 C    0.933
   916   6 C    3.986 --   914 C    0.991   917 C    0.986   933 H    0.968
                           932 H    0.963
   917   6 C    3.933 --   916 C    0.986   913 O    0.969   918 N    0.954
                           934 H    0.953
   918   7 N    3.587 --   919 C    1.202   927 C    1.157   917 C    0.954
                           920 N    0.113
   919   6 C    3.951 --   920 N    1.616   918 N    1.202   935 H    0.954
   920   7 N    3.009 --   919 C    1.616   921 C    1.174   918 N    0.113
   921   6 C    3.970 --   927 C    1.341   922 C    1.188   920 N    1.174
   922   6 C    3.972 --   923 N    1.342   924 N    1.303   921 C    1.188
   923   7 N    3.430 --   922 C    1.342   937 H    0.925   936 H    0.893
   924   7 N    3.062 --   925 C    1.400   922 C    1.303
   925   6 C    3.972 --   926 N    1.471   924 N    1.400   938 H    0.958
   926   7 N    3.003 --   925 C    1.471   927 C    1.252
   927   6 C    3.960 --   921 C    1.341   926 N    1.252   918 N    1.157
   928   1 H    0.995 --   911 C    0.964
   929   1 H    0.994 --   911 C    0.962
   930   1 H    0.990 --   912 C    0.947
   931   1 H    0.989 --   914 C    0.953
   932   1 H    0.991 --   916 C    0.963
   933   1 H    0.993 --   916 C    0.968
   934   1 H    0.996 --   917 C    0.953
   935   1 H    0.993 --   919 C    0.954
   936   1 H    0.940 --   923 N    0.893
   937   1 H    0.943 --   923 N    0.925
   938   1 H    0.999 --   925 C    0.958
   939  15 P    5.466 --   940 O    1.750   941 O    1.383   942 O    1.143
                           915 O    1.123
   940   8 O    1.967 --   939 P    1.750
   941   8 O    2.297 --   939 P    1.383  1142 H    0.750
   942   8 O    2.275 --   939 P    1.143   943 C    0.939
   943   6 C    3.924 --   944 C    0.978   961 H    0.965   962 H    0.961
                           942 O    0.939
   944   6 C    3.947 --   943 C    0.978   945 O    0.973   946 C    0.969
                           963 H    0.952
   945   8 O    2.084 --   944 C    0.973   949 C    0.970
   946   6 C    3.933 --   948 C    0.991   944 C    0.969   964 H    0.958
                           947 O    0.939
   947   8 O    2.273 --   972 P    1.121   946 C    0.939
   948   6 C    3.986 --   946 C    0.991   949 C    0.983   965 H    0.966
                           966 H    0.963
   949   6 C    3.930 --   948 C    0.983   945 O    0.970   950 N    0.956
                           967 H    0.952
   950   7 N    3.583 --   951 C    1.188   960 C    1.162   949 C    0.956
                           952 N    0.114
   951   6 C    3.943 --   952 N    1.613   950 N    1.188   968 H    0.955
   952   7 N    3.016 --   951 C    1.613   953 C    1.193   950 N    0.114
   953   6 C    3.964 --   960 C    1.364   952 N    1.193   954 C    1.123
   954   6 C    3.946 --   955 O    1.576   956 N    1.129   953 C    1.123
   955   8 O    1.962 --   954 C    1.576   956 N    0.133
   956   7 N    3.509 --   957 C    1.171   954 C    1.129   969 H    0.865
                           955 O    0.133
   957   6 C    3.965 --   959 N    1.365   958 N    1.338   956 N    1.171
   958   7 N    3.398 --   957 C    1.338   970 H    0.916   971 H    0.884
                           959 N    0.107
   959   7 N    2.951 --   957 C    1.365   960 C    1.228   958 N    0.107
   960   6 C    3.961 --   953 C    1.364   959 N    1.228   950 N    1.162
   961   1 H    0.993 --   943 C    0.965
   962   1 H    0.996 --   943 C    0.961
   963   1 H    0.991 --   944 C    0.952
   964   1 H    0.994 --   946 C    0.958
   965   1 H    0.992 --   948 C    0.966
   966   1 H    0.991 --   948 C    0.963
   967   1 H    0.993 --   949 C    0.952
   968   1 H    0.995 --   951 C    0.955
   969   1 H    0.945 --   956 N    0.865
   970   1 H    0.935 --   958 N    0.916
   971   1 H    0.941 --   958 N    0.884
   972  15 P    5.427 --   973 O    1.757   974 O    1.370   947 O    1.121
                           975 O    1.108
   973   8 O    1.968 --   972 P    1.757
   974   8 O    2.284 --   972 P    1.370  1143 H    0.750
   975   8 O    2.251 --   972 P    1.108   976 C    0.941
   976   6 C    3.924 --   977 C    0.991   994 H    0.966   993 H    0.965
                           975 O    0.941
   977   6 C    3.945 --   976 C    0.991   979 C    0.965   978 O    0.963
                           995 H    0.950
   978   8 O    2.073 --   982 C    0.976   977 C    0.963
   979   6 C    3.929 --   981 C    0.993   977 C    0.965   996 H    0.961
                           980 O    0.941
   980   8 O    2.255 --  1004 P    1.101   979 C    0.941
   981   6 C    3.988 --   979 C    0.993   982 C    0.974   997 H    0.971
                           998 H    0.963
   982   6 C    3.935 --   978 O    0.976   981 C    0.974   983 N    0.963
                           999 H    0.954
   983   7 N    3.595 --   984 C    1.203   992 C    1.161   982 C    0.963
                           985 N    0.113
   984   6 C    3.949 --   985 N    1.603   983 N    1.203  1000 H    0.956
   985   7 N    3.006 --   984 C    1.603   986 C    1.185   983 N    0.113
   986   6 C    3.970 --   992 C    1.329   987 C    1.187   985 N    1.185
   987   6 C    3.969 --   988 N    1.354   989 N    1.289   986 C    1.187
   988   7 N    3.450 --   987 C    1.354  1002 H    0.928  1001 H    0.890
   989   7 N    3.077 --   990 C    1.423   987 C    1.289
   990   6 C    3.969 --   991 N    1.448   989 N    1.423  1003 H    0.958
   991   7 N    2.998 --   990 C    1.448   992 C    1.262
   992   6 C    3.960 --   986 C    1.329   991 N    1.262   983 N    1.161
   993   1 H    0.994 --   976 C    0.965
   994   1 H    0.992 --   976 C    0.966
   995   1 H    0.993 --   977 C    0.950
   996   1 H    0.994 --   979 C    0.961
   997   1 H    0.994 --   981 C    0.971
   998   1 H    0.993 --   981 C    0.963
   999   1 H    0.995 --   982 C    0.954
  1000   1 H    0.994 --   984 C    0.956
  1001   1 H    0.942 --   988 N    0.890
  1002   1 H    0.947 --   988 N    0.928
  1003   1 H    0.998 --   990 C    0.958
  1004  15 P    5.448 --  1006 O    1.762  1005 O    1.385  1007 O    1.139
                           980 O    1.101
  1005   8 O    2.299 --  1004 P    1.385  1144 H    0.751
  1006   8 O    1.972 --  1004 P    1.762
  1007   8 O    2.268 --  1004 P    1.139  1008 C    0.937
  1008   6 C    3.923 --  1009 C    0.986  1024 H    0.967  1023 H    0.965
                          1007 O    0.937
  1009   6 C    3.946 --  1008 C    0.986  1011 C    0.969  1010 O    0.967
                          1025 H    0.951
  1010   8 O    2.066 --  1009 C    0.967  1014 C    0.967
  1011   6 C    3.931 --  1013 C    0.992  1009 C    0.969  1026 H    0.958
                          1012 O    0.932
  1012   8 O    2.240 --  1034 P    1.096  1011 C    0.932
  1013   6 C    3.985 --  1011 C    0.992  1014 C    0.979  1028 H    0.964
                          1027 H    0.961
  1014   6 C    3.935 --  1013 C    0.979  1010 O    0.967  1015 N    0.964
                          1029 H    0.955
  1015   7 N    3.574 --  1022 C    1.208  1016 C    1.062  1014 C    0.964
                          1017 O    0.112
  1016   6 C    3.951 --  1017 O    1.552  1018 N    1.243  1015 N    1.062
  1017   8 O    1.936 --  1016 C    1.552  1018 N    0.119  1015 N    0.112
  1018   7 N    3.045 --  1019 C    1.355  1016 C    1.243  1017 O    0.119
                          1020 N    0.113
  1019   6 C    3.967 --  1020 N    1.376  1018 N    1.355  1021 C    1.145
  1020   7 N    3.456 --  1019 C    1.376  1031 H    0.920  1030 H    0.886
                          1018 N    0.113
  1021   6 C    3.974 --  1022 C    1.655  1019 C    1.145  1032 H    0.958
  1022   6 C    3.958 --  1021 C    1.655  1015 N    1.208  1033 H    0.948
  1023   1 H    0.993 --  1008 C    0.965
  1024   1 H    0.992 --  1008 C    0.967
  1025   1 H    0.991 --  1009 C    0.951
  1026   1 H    0.994 --  1011 C    0.958
  1027   1 H    0.990 --  1013 C    0.961
  1028   1 H    0.993 --  1013 C    0.964
  1029   1 H    0.996 --  1014 C    0.955
  1030   1 H    0.940 --  1020 N    0.886
  1031   1 H    0.939 --  1020 N    0.920
  1032   1 H    0.990 --  1021 C    0.958
  1033   1 H    0.990 --  1022 C    0.948
  1034  15 P    5.405 --  1035 O    1.734  1036 O    1.357  1037 O    1.136
                          1012 O    1.096
  1035   8 O    1.955 --  1034 P    1.734
  1036   8 O    2.276 --  1034 P    1.357  1145 H    0.755
  1037   8 O    2.262 --  1034 P    1.136  1038 C    0.931
  1038   6 C    3.915 --  1039 C    0.984  1055 H    0.966  1056 H    0.965
                          1037 O    0.931
  1039   6 C    3.947 --  1038 C    0.984  1041 C    0.969  1040 O    0.968
                          1057 H    0.949
  1040   8 O    2.075 --  1044 C    0.970  1039 C    0.968
  1041   6 C    3.933 --  1043 C    0.992  1039 C    0.969  1058 H    0.953
                          1042 O    0.934
  1042   8 O    2.253 --  1066 P    1.108  1041 C    0.934
  1043   6 C    3.985 --  1041 C    0.992  1044 C    0.985  1059 H    0.961
                          1060 H    0.958
  1044   6 C    3.933 --  1043 C    0.985  1040 O    0.970  1045 N    0.959
                          1061 H    0.953
  1045   7 N    3.596 --  1046 C    1.209  1054 C    1.156  1044 C    0.959
                          1047 N    0.113
  1046   6 C    3.951 --  1047 N    1.603  1045 N    1.209  1062 H    0.951
  1047   7 N    3.006 --  1046 C    1.603  1048 C    1.185  1045 N    0.113
  1048   6 C    3.971 --  1054 C    1.336  1047 N    1.185  1049 C    1.183
  1049   6 C    3.970 --  1050 N    1.335  1051 N    1.309  1048 C    1.183
  1050   7 N    3.431 --  1049 C    1.335  1064 H    0.927  1063 H    0.896
  1051   7 N    3.065 --  1052 C    1.408  1049 C    1.309
  1052   6 C    3.971 --  1053 N    1.463  1051 N    1.408  1065 H    0.958
  1053   7 N    3.007 --  1052 C    1.463  1054 C    1.259
  1054   6 C    3.961 --  1048 C    1.336  1053 N    1.259  1045 N    1.156
  1055   1 H    0.993 --  1038 C    0.966
  1056   1 H    0.993 --  1038 C    0.965
  1057   1 H    0.989 --  1039 C    0.949
  1058   1 H    0.995 --  1041 C    0.953
  1059   1 H    0.989 --  1043 C    0.961
  1060   1 H    0.992 --  1043 C    0.958
  1061   1 H    0.993 --  1044 C    0.953
  1062   1 H    0.993 --  1046 C    0.951
  1063   1 H    0.944 --  1050 N    0.896
  1064   1 H    0.947 --  1050 N    0.927
  1065   1 H    0.999 --  1052 C    0.958
  1066  15 P    5.442 --  1067 O    1.778  1068 O    1.382  1042 O    1.108
                          1069 O    1.106
  1067   8 O    1.988 --  1066 P    1.778
  1068   8 O    2.304 --  1066 P    1.382  1146 H    0.761
  1069   8 O    2.250 --  1066 P    1.106  1070 C    0.941
  1070   6 C    3.924 --  1071 C    0.988  1087 H    0.966  1086 H    0.966
                          1069 O    0.941
  1071   6 C    3.946 --  1070 C    0.988  1073 C    0.965  1072 O    0.964
                          1088 H    0.952
  1072   8 O    2.068 --  1076 C    0.971  1071 C    0.964
  1073   6 C    3.928 --  1075 C    0.990  1071 C    0.965  1089 H    0.955
                          1074 O    0.934
  1074   8 O    2.264 --  1098 P    1.117  1073 C    0.934
  1075   6 C    3.984 --  1073 C    0.990  1076 C    0.984  1091 H    0.966
                          1090 H    0.961
  1076   6 C    3.932 --  1075 C    0.984  1072 O    0.971  1092 H    0.954
                          1077 N    0.953
  1077   7 N    3.565 --  1085 C    1.157  1078 C    1.114  1076 C    0.953
                          1079 O    0.130
  1078   6 C    3.958 --  1079 O    1.602  1080 N    1.160  1077 N    1.114
  1079   8 O    1.944 --  1078 C    1.602  1077 N    0.130  1080 N    0.128
  1080   7 N    3.526 --  1078 C    1.160  1081 C    1.141  1093 H    0.859
                          1082 O    0.137  1079 O    0.128
  1081   6 C    3.937 --  1082 O    1.622  1080 N    1.141  1083 C    1.079
  1082   8 O    1.987 --  1081 C    1.622  1080 N    0.137
  1083   6 C    3.976 --  1085 C    1.652  1081 C    1.079  1084 C    1.021
  1084   6 C    3.977 --  1083 C    1.021  1096 H    0.980  1095 H    0.965
                          1094 H    0.961
  1085   6 C    3.943 --  1083 C    1.652  1077 N    1.157  1097 H    0.941
  1086   1 H    0.993 --  1070 C    0.966
  1087   1 H    0.993 --  1070 C    0.966
  1088   1 H    0.992 --  1071 C    0.952
  1089   1 H    0.994 --  1073 C    0.955
  1090   1 H    0.989 --  1075 C    0.961
  1091   1 H    0.994 --  1075 C    0.966
  1092   1 H    0.995 --  1076 C    0.954
  1093   1 H    0.944 --  1080 N    0.859
  1094   1 H    0.988 --  1084 C    0.961
  1095   1 H    0.992 --  1084 C    0.965
  1096   1 H    0.993 --  1084 C    0.980
  1097   1 H    0.987 --  1085 C    0.941
  1098  15 P    5.471 --  1099 O    1.797  1100 O    1.381  1074 O    1.117
                          1101 O    1.113
  1099   8 O    1.996 --  1098 P    1.797
  1100   8 O    2.300 --  1098 P    1.381  1147 H    0.761
  1101   8 O    2.255 --  1098 P    1.113  1102 C    0.937
  1102   6 C    3.924 --  1103 C    0.986  1119 H    0.970  1120 H    0.970
                          1101 O    0.937
  1103   6 C    3.944 --  1102 C    0.986  1105 C    0.968  1104 O    0.964
                          1121 H    0.954
  1104   8 O    2.061 --  1108 C    0.965  1103 C    0.964
  1105   6 C    3.961 --  1106 O    0.995  1107 C    0.987  1103 C    0.968
                          1122 H    0.961
  1106   8 O    1.924 --  1105 C    0.995  1123 H    0.857
  1107   6 C    3.989 --  1105 C    0.987  1108 C    0.985  1125 H    0.971
                          1124 H    0.967
  1108   6 C    3.931 --  1107 C    0.985  1104 O    0.965  1109 N    0.960
                          1126 H    0.951
  1109   7 N    3.591 --  1110 C    1.201  1118 C    1.163  1108 C    0.960
                          1111 N    0.115
  1110   6 C    3.949 --  1111 N    1.611  1109 N    1.201  1127 H    0.956
  1111   7 N    3.004 --  1110 C    1.611  1112 C    1.175  1109 N    0.115
  1112   6 C    3.968 --  1118 C    1.331  1113 C    1.194  1111 N    1.175
  1113   6 C    3.973 --  1114 N    1.351  1115 N    1.290  1112 C    1.194
  1114   7 N    3.440 --  1113 C    1.351  1129 H    0.927  1128 H    0.884
  1115   7 N    3.066 --  1116 C    1.416  1113 C    1.290
  1116   6 C    3.971 --  1117 N    1.459  1115 N    1.416  1130 H    0.958
  1117   7 N    3.003 --  1116 C    1.459  1118 C    1.259
  1118   6 C    3.959 --  1112 C    1.331  1117 N    1.259  1109 N    1.163
  1119   1 H    0.995 --  1102 C    0.970
  1120   1 H    0.995 --  1102 C    0.970
  1121   1 H    0.993 --  1103 C    0.954
  1122   1 H    0.996 --  1105 C    0.961
  1123   1 H    0.871 --  1106 O    0.857
  1124   1 H    0.995 --  1107 C    0.967
  1125   1 H    0.994 --  1107 C    0.971
  1126   1 H    0.996 --  1108 C    0.951
  1127   1 H    0.994 --  1110 C    0.956
  1128   1 H    0.935 --  1114 N    0.884
  1129   1 H    0.947 --  1114 N    0.927
  1130   1 H    0.998 --  1116 C    0.958
  1131   1 H    0.787 --   602 O    0.750
  1132   1 H    0.781 --   634 O    0.746
  1133   1 H    0.783 --   668 O    0.747
  1134   1 H    0.794 --   700 O    0.758
  1135   1 H    0.807 --   732 O    0.760
  1136   1 H    0.811 --   765 O    0.766
  1137   1 H    0.810 --   796 O    0.756
  1138   1 H    0.800 --   828 O    0.759
  1139   1 H    0.802 --   858 O    0.754
  1140   1 H    0.808 --   876 O    0.765
  1141   1 H    0.800 --   908 O    0.759
  1142   1 H    0.785 --   941 O    0.750
  1143   1 H    0.783 --   974 O    0.750
  1144   1 H    0.786 --  1005 O    0.751
  1145   1 H    0.796 --  1036 O    0.755
  1146   1 H    0.808 --  1068 O    0.761
  1147   1 H    0.802 --  1100 O    0.761
  1148   1 H    0.785 --    32 O    0.749
  1149   1 H    0.829 --    64 O    0.773
  1150   1 H    0.792 --    96 O    0.754
  1151   1 H    0.805 --   129 O    0.758
  1152   1 H    0.805 --   161 O    0.762
  1153   1 H    0.802 --   191 O    0.759
  1154   1 H    0.802 --   223 O    0.758
  1155   1 H    0.800 --   254 O    0.758
  1156   1 H    0.782 --   286 O    0.748
  1157   1 H    0.786 --   319 O    0.750
  1158   1 H    0.785 --   351 O    0.751
  1159   1 H    0.783 --   383 O    0.748
  1160   1 H    0.784 --   413 O    0.749
  1161   1 H    0.792 --   445 O    0.753
  1162   1 H    0.803 --   477 O    0.762
  1163   1 H    0.807 --   507 O    0.762
  1164   1 H    0.806 --   539 O    0.763
 ---------------------------------------------------------------------------


molecular dipole:
                 x           y           z       tot (Debye)
 q only:       25.483      14.393      13.368
   full:       26.029      16.609      12.334      84.510
molecular quadrupole (traceless):
                xx          xy          yy          xz          yz          zz
 q only:      515.874     235.599    -455.660    -144.872    -692.822     -60.214
  q+dip:      519.570     172.059    -456.995    -172.263    -669.470     -62.574
   full:      492.115     177.475    -408.594    -174.073    -652.155     -83.521


           -------------------------------------------------
          | TOTAL ENERGY            -2299.653732962146 Eh   |
          | GRADIENT NORM               0.863777253135 Eh/α |
          | HOMO-LUMO GAP               2.409192240490 eV   |
           -------------------------------------------------

------------------------------------------------------------------------
 * finished run on 2023/03/09 at 13:53:17.551     
------------------------------------------------------------------------
 total:
 * wall-time:     0 d,  0 h,  0 min, 30.078 sec
 *  cpu-time:     0 d,  0 h,  4 min, 13.412 sec
 * ratio c/w:     8.425 speedup
 SCF:
 * wall-time:     0 d,  0 h,  0 min, 26.826 sec
 *  cpu-time:     0 d,  0 h,  4 min,  3.554 sec
 * ratio c/w:     9.079 speedup

