      -----------------------------------------------------------      
     |                   =====================                   |     
     |                           x T B                           |     
     |                   =====================                   |     
     |                         S. Grimme                         |     
     |          Mulliken Center for Theoretical Chemistry        |     
     |                    University of Bonn                     |     
      -----------------------------------------------------------      

   * xtb version 6.5.1 (579679a) compiled by 'ehlert@majestix' on 2022-07-11

   xtb is free software: you can redistribute it and/or modify it under
   the terms of the GNU Lesser General Public License as published by
   the Free Software Foundation, either version 3 of the License, or
   (at your option) any later version.
   
   xtb is distributed in the hope that it will be useful,
   but WITHOUT ANY WARRANTY; without even the implied warranty of
   MERCHANTABILITY or FITNESS FOR A PARTICULAR PURPOSE.  See the
   GNU Lesser General Public License for more details.
   
   Cite this work as:
   * C. Bannwarth, E. Caldeweyher, S. Ehlert, A. Hansen, P. Pracht,
     J. Seibert, S. Spicher, S. Grimme, WIREs Comput. Mol. Sci., 2020, 11,
     e01493. DOI: 10.1002/wcms.1493
   
   for GFN2-xTB:
   * C. Bannwarth, S. Ehlert and S. Grimme., J. Chem. Theory Comput., 2019,
     15, 1652-1671. DOI: 10.1021/acs.jctc.8b01176
   for GFN1-xTB:
   * S. Grimme, C. Bannwarth, P. Shushkov, J. Chem. Theory Comput., 2017,
     13, 1989-2009. DOI: 10.1021/acs.jctc.7b00118
   for GFN0-xTB:
   * P. Pracht, E. Caldeweyher, S. Ehlert, S. Grimme, ChemRxiv, 2019, preprint.
     DOI: 10.26434/chemrxiv.8326202.v1
   for GFN-FF:
   * S. Spicher and S. Grimme, Angew. Chem. Int. Ed., 2020, 59, 15665-15673.
     DOI: 10.1002/anie.202004239
   
   for ALPB and GBSA implicit solvation:
   * S. Ehlert, M. Stahn, S. Spicher, S. Grimme, J. Chem. Theory Comput.,
     2021, 17, 4250-4261. DOI: 10.1021/acs.jctc.1c00471
   
   for DFT-D4:
   * E. Caldeweyher, C. Bannwarth and S. Grimme, J. Chem. Phys., 2017,
     147, 034112. DOI: 10.1063/1.4993215
   * E. Caldeweyher, S. Ehlert, A. Hansen, H. Neugebauer, S. Spicher,
     C. Bannwarth and S. Grimme, J. Chem. Phys., 2019, 150, 154122.
     DOI: 10.1063/1.5090222
   * E. Caldeweyher, J.-M. Mewes, S. Ehlert and S. Grimme, Phys. Chem. Chem. Phys.
     2020, 22, 8499-8512. DOI: 10.1039/D0CP00502A
   
   for sTDA-xTB:
   * S. Grimme and C. Bannwarth, J. Chem. Phys., 2016, 145, 054103.
     DOI: 10.1063/1.4959605
   
   in the mass-spec context:
   * V. Asgeirsson, C. Bauer and S. Grimme, Chem. Sci., 2017, 8, 4879.
     DOI: 10.1039/c7sc00601b
   * J. Koopman and S. Grimme, ACS Omega 2019, 4, 12, 15120-15133.
     DOI: 10.1021/acsomega.9b02011
   
   for metadynamics refer to:
   * S. Grimme, J. Chem. Theory Comput., 2019, 155, 2847-2862
     DOI: 10.1021/acs.jctc.9b00143
   
   for SPH calculations refer to:
   * S. Spicher and S. Grimme, J. Chem. Theory Comput., 2021, 17, 1701-1714
     DOI: 10.1021/acs.jctc.0c01306
   
   with help from (in alphabetical order)
   P. Atkinson, C. Bannwarth, F. Bohle, G. Brandenburg, E. Caldeweyher
   M. Checinski, S. Dohm, S. Ehlert, S. Ehrlich, I. Gerasimov, C. Hölzer
   A. Katbashev, J. Koopman, C. Lavigne, S. Lehtola, F. März, M. Müller,
   F. Musil, H. Neugebauer, J. Pisarek, C. Plett, P. Pracht, F. Pultar,
   J. Seibert, P. Shushkov, S. Spicher, M. Stahn, M. Steiner, T. Strunk,
   J. Stückrath, T. Rose, and J. Unsleber
   
 * started run on 2023/03/09 at 13:52:13.616     

           -------------------------------------------------
          |                Calculation Setup                |
           -------------------------------------------------

          program call               : /N/u/schandy/BigRed3/bin/xtb-6.5.1/bin/xtb 7nbk.xyz --gbsa water
          hostname                   : nid00005
          coordinate file            : 7nbk.xyz
          omp threads                :                    10

   ID    Z sym.   atoms
    1    8 O      1, 4, 6, 11, 30-32, 35, 37, 45, 63-65, 68, 70, 75, 78,
                  95-97, 100, 102, 128, 130, 132, 137, 143, 144, 157-159,
                  162, 164, 172, 190, 193, 195, 200, 219-221, 224, 226, 234,
                  252-254, 257, 259, 264, 267, 284-286, 289, 291, 317, 319,
                  321, 326, 332, 333, 346-348, 351, 353, 361
    2    6 C      2, 3, 5, 7, 8, 10, 13, 15, 16, 33, 34, 36, 38, 39, 41, 43,
                  44, 47, 50, 66, 67, 69, 71, 72, 74, 77, 79-81, 98, 99, 101,
                  103, 104, 106, 108, 109, 112, 114, 127, 129, 131, 133, 134,
                  136, 139, 141, 142, 160, 161, 163, 165, 166, 168, 170, 171,
                  174, 177, 191, 192, 194, 196, 197, 199, 202, 204, 205, 222,
                  223, 225, 227, 228, 230, 232, 233, 236, 239, 255, 256, 258,
                  260, 261, 263, 266, 268-270, 287, 288, 290, 292, 293, 295,
                  297, 298, 301, 303, 316, 318, 320, 322, 323, 325, 328, 330,
                  331, 349, 350, 352, 354, 355, 357, 359, 360, 363, 366
    3    7 N      9, 12, 14, 40, 42, 46, 48, 49, 73, 76, 105, 107, 110, 111,
                  113, 135, 138, 140, 167, 169, 173, 175, 176, 198, 201, 203,
                  229, 231, 235, 237, 238, 262, 265, 294, 296, 299, 300, 302,
                  324, 327, 329, 356, 358, 362, 364, 365
    4    1 H      17-28, 51-61, 82-93, 115-125, 147-155, 178-189, 206-217,
                  240-250, 271-282, 304-314, 336-344, 367-388
    5   15 P      29, 62, 94, 126, 156, 218, 251, 283, 315, 345
    6    9 F      145, 146, 334, 335

molecular fragmentation (1/2 indicates fragments):
111111111111111111111111111111111111111111111111111111111111111111111111
111111111111111111111111111111111111111111111111111111111111111111111111
111111111111111111111111111111111111111111111222222222222222222222222222
222222222222222222222222222222222222222222222222222222222222222222222222
222222222222222222222222222222222222222222222222222222222222222222222222
2222222222222222222222211111
# atoms in fragment 1/2:   194   194
 fragment masses (1/2) :     1828.19     1828.19
CMA distance (Bohr)    :  11.599
constraining FC (au)   :  0.0500

           -------------------------------------------------
          |                 G F N 2 - x T B                 |
           -------------------------------------------------

        Reference                      10.1021/acs.jctc.8b01176
      * Hamiltonian:
        H0-scaling (s, p, d)           1.850000    2.230000    2.230000
        zeta-weighting                 0.500000
      * Dispersion:
        s8                             2.700000
        a1                             0.520000
        a2                             5.000000
        s9                             5.000000
      * Repulsion:
        kExp                           1.500000    1.000000
        rExp                           1.000000
      * Coulomb:
        alpha                          2.000000
        third order                    shell-resolved
        anisotropic                    true
        a3                             3.000000
        a5                             4.000000
        cn-shift                       1.200000
        cn-exp                         4.000000
        max-rad                        5.000000

      * Solvation model:               GBSA
        Solvent                        water
        Parameter file                 internal GFN2-xTB/GBSA
        Dielectric constant                8.0200E+01
        Reference state                gsolv [1 M gas/solution]
        Free energy shift                  1.8574E-03 Eh       1.1656E+00 kcal/mol
        Temperature                        2.9815E+02 K
        Density                            1.0000E+00 kg/L
        Solvent mass                       1.8000E+01 g/mol
        Interaction kernel             Still
        Born radius scaling (c1)           1.5524E+00
        Born radii integrator          GBOBC
        Born offset                        2.4628E-02 a0       4.6540E-02 AA
        H-bond correction              true
        Ion screening                  false
        Surface tension                    1.0000E-05 Eh       1.5569E+01 dyn/cm
        Grid points                               230 per atom
q/qsh data taken from xtbrestart
CAMM data taken from xtbrestart

          ...................................................
          :                      SETUP                      :
          :.................................................:
          :  # basis functions                1180          :
          :  # atomic orbitals                1170          :
          :  # shells                          642          :
          :  # electrons                      1324          :
          :  max. iterations                   250          :
          :  Hamiltonian                  GFN2-xTB          :
          :  restarted?                       true          :
          :  GBSA solvation                   true          :
          :  PC potential                    false          :
          :  electronic temp.          300.0000000     K    :
          :  accuracy                    1.0000000          :
          :  -> integral cutoff          0.2500000E+02      :
          :  -> integral neglect         0.1000000E-07      :
          :  -> SCF convergence          0.1000000E-05 Eh   :
          :  -> wf. convergence          0.1000000E-03 e    :
          :  Broyden damping             0.4000000          :
          ...................................................

 iter      E             dE          RMSdq      gap      omega  full diag
   1   -787.0833424 -0.787083E+03  0.234E-01    2.23       0.0  T
   2   -787.0913065 -0.796411E-02  0.919E-02    2.29       1.0  T
   3   -787.0923827 -0.107622E-02  0.521E-02    2.29       1.0  T
   4   -787.0926720 -0.289318E-03  0.274E-02    2.28       1.0  T
   5   -787.0927644 -0.923589E-04  0.117E-02    2.28       1.0  T
   6   -787.0927766 -0.121820E-04  0.674E-03    2.28       1.0  T
   7   -787.0927816 -0.506179E-05  0.369E-03    2.28       1.4  T
   8   -787.0927829 -0.131979E-05  0.190E-03    2.28       2.7  T
   9   -787.0927833 -0.353727E-06  0.918E-04    2.28       5.5  T
  10   -787.0927834 -0.132256E-06  0.416E-04    2.28      12.2  T

   *** convergence criteria satisfied after 10 iterations ***

         #    Occupation            Energy/Eh            Energy/eV
      -------------------------------------------------------------
         1        2.0000           -0.8908012             -24.2399
       ...           ...                  ...                  ...
       656        2.0000           -0.3949014             -10.7458
       657        2.0000           -0.3912755             -10.6471
       658        2.0000           -0.3892242             -10.5913
       659        2.0000           -0.3873002             -10.5390
       660        2.0000           -0.3871448             -10.5347
       661        2.0000           -0.3781885             -10.2910
       662        2.0000           -0.3756314             -10.2215 (HOMO)
       663                         -0.2917830              -7.9398 (LUMO)
       664                         -0.2900148              -7.8917
       665                         -0.2897440              -7.8843
       666                         -0.2882533              -7.8438
       667                         -0.2766768              -7.5288
       ...                                ...                  ...
      1170                          1.3202196              35.9250
      -------------------------------------------------------------
                  HL-Gap            0.0838484 Eh            2.2816 eV
             Fermi-level           -0.3337072 Eh           -9.0806 eV

 SCC (total)                   0 d,  0 h,  0 min,  2.369 sec
 SCC setup                      ...        0 min,  0.022 sec (  0.920%)
 Dispersion                     ...        0 min,  0.047 sec (  1.973%)
 classical contributions        ...        0 min,  0.001 sec (  0.056%)
 integral evaluation            ...        0 min,  0.157 sec (  6.639%)
 iterations                     ...        0 min,  1.514 sec ( 63.914%)
 molecular gradient             ...        0 min,  0.612 sec ( 25.816%)
 printout                       ...        0 min,  0.016 sec (  0.681%)

         :::::::::::::::::::::::::::::::::::::::::::::::::::::
         ::                     SUMMARY                     ::
         :::::::::::::::::::::::::::::::::::::::::::::::::::::
         :: total energy            -779.649505937036 Eh    ::
         :: total w/o Gsasa/hb      -779.525827801755 Eh    ::
         :: gradient norm              0.479778957892 Eh/a0 ::
         :: HOMO-LUMO gap              2.281631626786 eV    ::
         ::.................................................::
         :: SCC energy              -787.092783419701 Eh    ::
         :: -> isotropic ES            2.591001915047 Eh    ::
         :: -> anisotropic ES         -0.183727582347 Eh    ::
         :: -> anisotropic XC          0.112844612271 Eh    ::
         :: -> dispersion             -0.660028837175 Eh    ::
         :: -> Gsolv                  -0.408758749570 Eh    ::
         ::    -> Gelec               -0.285080614289 Eh    ::
         ::    -> Gsasa               -0.010717350466 Eh    ::
         ::    -> Ghb                 -0.114818227941 Eh    ::
         ::    -> Gshift               0.001857443127 Eh    ::
         :: repulsion energy           7.388378583263 Eh    ::
         :: add. restraining           0.000000000000 Eh    ::
         :: total charge               0.000000000000 e     ::
         :::::::::::::::::::::::::::::::::::::::::::::::::::::

           -------------------------------------------------
          |                Property Printout                |
           -------------------------------------------------

    * Orbital Energies and Occupations

         #    Occupation            Energy/Eh            Energy/eV
      -------------------------------------------------------------
         1        2.0000           -0.8908012             -24.2399
       ...           ...                  ...                  ...
       650        2.0000           -0.4037155             -10.9857
       651        2.0000           -0.4026635             -10.9570
       652        2.0000           -0.4011870             -10.9169
       653        2.0000           -0.3982671             -10.8374
       654        2.0000           -0.3981380             -10.8339
       655        2.0000           -0.3964247             -10.7873
       656        2.0000           -0.3949014             -10.7458
       657        2.0000           -0.3912755             -10.6471
       658        2.0000           -0.3892242             -10.5913
       659        2.0000           -0.3873002             -10.5390
       660        2.0000           -0.3871448             -10.5347
       661        2.0000           -0.3781885             -10.2910
       662        2.0000           -0.3756314             -10.2215 (HOMO)
       663                         -0.2917830              -7.9398 (LUMO)
       664                         -0.2900148              -7.8917
       665                         -0.2897440              -7.8843
       666                         -0.2882533              -7.8438
       667                         -0.2766768              -7.5288
       668                         -0.2759541              -7.5091
       669                         -0.2739929              -7.4557
       670                         -0.2677627              -7.2862
       671                         -0.2624146              -7.1407
       672                         -0.2569722              -6.9926
       673                         -0.2541259              -6.9151
       ...                                ...                  ...
      1170                          1.3202196              35.9250
      -------------------------------------------------------------
                  HL-Gap            0.0838484 Eh            2.2816 eV
             Fermi-level           -0.3337072 Eh           -9.0806 eV

 * generalized Born model for continuum solvation

     #   Z     Born rad/Å   SASA/Å²    H-bond
     1   8 O        2.289    16.725    -0.002
     2   6 C        2.724     1.987    -0.000
     3   6 C        3.220     0.316    -0.000
     4   8 O        2.846     9.043    -0.001
     5   6 C        3.413     0.000    -0.000
     6   8 O        2.651     4.848    -0.001
     7   6 C        3.335     0.434    -0.000
     8   6 C        3.418     0.780    -0.000
     9   7 N        3.461     0.945    -0.000
    10   6 C        3.320     4.712    -0.000
    11   8 O        2.577    12.576    -0.002
    12   7 N        3.270     3.578    -0.001
    13   6 C        3.525     3.862    -0.000
    14   7 N        2.625     6.890    -0.002
    15   6 C        3.173     4.907    -0.000
    16   6 C        3.254     1.970    -0.000
    17   1 H        2.047    19.702    -0.026
    18   1 H        2.075    16.842    -0.023
    19   1 H        2.176    15.427    -0.021
    20   1 H        2.426     2.580    -0.003
    21   1 H        2.569     0.524    -0.001
    22   1 H        2.318     7.595    -0.010
    23   1 H        2.296    12.644    -0.017
    24   1 H        2.581     2.769    -0.004
    25   1 H        2.320     8.152    -0.011
    26   1 H        2.133    16.442    -0.022
    27   1 H        2.369     4.640    -0.006
    28   1 H        2.112     8.649    -0.012
    29  15 P        3.248     9.879    -0.001
    30   8 O        2.175    25.466    -0.003
    31   8 O        2.287    12.310    -0.002
    32   8 O        2.800     0.520    -0.000
    33   6 C        2.897     0.541    -0.000
    34   6 C        3.264     0.335    -0.000
    35   8 O        2.941     7.607    -0.001
    36   6 C        3.291     0.358    -0.000
    37   8 O        2.652     4.671    -0.001
    38   6 C        3.381     0.311    -0.000
    39   6 C        3.679     0.356    -0.000
    40   7 N        3.948     0.067    -0.000
    41   6 C        3.403     0.281    -0.000
    42   7 N        2.916     9.897    -0.003
    43   6 C        4.234     0.107    -0.000
    44   6 C        3.666     0.102    -0.000
    45   8 O        2.668     8.044    -0.001
    46   7 N        3.673     0.002    -0.000
    47   6 C        4.123     0.010    -0.000
    48   7 N        2.876     0.517    -0.000
    49   7 N        3.377     3.334    -0.001
    50   6 C        4.491     0.744    -0.000
    51   1 H        2.207     9.191    -0.012
    52   1 H        2.139    13.197    -0.018
    53   1 H        2.177    16.236    -0.022
    54   1 H        2.219    11.631    -0.016
    55   1 H        2.437     5.720    -0.008
    56   1 H        2.459     0.262    -0.000
    57   1 H        2.546     2.282    -0.003
    58   1 H        2.523     0.724    -0.001
    59   1 H        3.498     0.004    -0.000
    60   1 H        2.760     1.932    -0.003
    61   1 H        2.426    10.722    -0.014
    62  15 P        3.239     7.573    -0.001
    63   8 O        2.181    24.873    -0.003
    64   8 O        2.274     7.474    -0.001
    65   8 O        2.725     0.217    -0.000
    66   6 C        2.897     0.501    -0.000
    67   6 C        3.314     0.295    -0.000
    68   8 O        3.067     2.758    -0.000
    69   6 C        3.340     0.385    -0.000
    70   8 O        2.690     4.451    -0.001
    71   6 C        3.370     0.773    -0.000
    72   6 C        3.838     0.017    -0.000
    73   7 N        3.879    -0.014     0.000
    74   6 C        3.889     0.000    -0.000
    75   8 O        2.756     3.177    -0.000
    76   7 N        3.529     0.000    -0.000
    77   6 C        3.589     0.005    -0.000
    78   8 O        2.643     8.699    -0.001
    79   6 C        3.820     0.831    -0.000
    80   6 C        2.784     2.847    -0.000
    81   6 C        3.593     2.081    -0.000
    82   1 H        2.194    10.788    -0.014
    83   1 H        2.152    12.534    -0.017
    84   1 H        2.202    16.140    -0.022
    85   1 H        2.231    11.053    -0.015
    86   1 H        2.405     8.064    -0.011
    87   1 H        2.415     3.907    -0.005
    88   1 H        2.617     1.543    -0.002
    89   1 H        3.414     0.003    -0.000
    90   1 H        2.202    11.306    -0.015
    91   1 H        2.136    16.620    -0.022
    92   1 H        2.275     6.756    -0.009
    93   1 H        2.510     1.448    -0.002
    94  15 P        3.266     6.703    -0.001
    95   8 O        2.196    24.145    -0.003
    96   8 O        2.280     7.597    -0.001
    97   8 O        2.762     0.043    -0.000
    98   6 C        2.924     0.445    -0.000
    99   6 C        3.309     0.287    -0.000
   100   8 O        2.998     6.786    -0.001
   101   6 C        3.342     0.349    -0.000
   102   8 O        2.682     4.832    -0.001
   103   6 C        3.344     0.681    -0.000
   104   6 C        3.740     0.149    -0.000
   105   7 N        4.091     0.000    -0.000
   106   6 C        3.473     1.760    -0.000
   107   7 N        3.079     6.555    -0.002
   108   6 C        4.797     0.006    -0.000
   109   6 C        4.333     0.000    -0.000
   110   7 N        2.801     0.911    -0.000
   111   7 N        3.881     0.001    -0.000
   112   6 C        3.636     0.097    -0.000
   113   7 N        3.305     3.358    -0.001
   114   6 C        4.797     0.000    -0.000
   115   1 H        2.206    10.967    -0.015
   116   1 H        2.182    11.627    -0.016
   117   1 H        2.208    16.195    -0.022
   118   1 H        2.245     9.432    -0.013
   119   1 H        2.410     8.114    -0.011
   120   1 H        2.367     3.530    -0.005
   121   1 H        2.535     4.291    -0.006
   122   1 H        2.516     1.673    -0.002
   123   1 H        2.715     1.870    -0.002
   124   1 H        2.358     9.713    -0.013
   125   1 H        2.512     5.970    -0.008
   126  15 P        3.225     8.136    -0.001
   127   6 C        2.873     0.519    -0.000
   128   8 O        2.660     1.969    -0.000
   129   6 C        3.318     0.208    -0.000
   130   8 O        3.104     1.487    -0.000
   131   6 C        3.249     0.043    -0.000
   132   8 O        2.598     5.066    -0.001
   133   6 C        3.335     0.001    -0.000
   134   6 C        3.582     0.041    -0.000
   135   7 N        3.788     0.000    -0.000
   136   6 C        3.731     0.008    -0.000
   137   8 O        2.807     4.662    -0.001
   138   7 N        3.701     0.000    -0.000
   139   6 C        3.837     1.112    -0.000
   140   7 N        2.704     2.687    -0.001
   141   6 C        3.369     4.567    -0.000
   142   6 C        3.424     1.779    -0.000
   143   8 O        2.189    24.371    -0.003
   144   8 O        2.247    10.180    -0.001
   145   9 F        2.285     5.135    -0.001
   146   9 F        2.284     7.125    -0.001
   147   1 H        2.137    14.008    -0.019
   148   1 H        2.192    11.494    -0.015
   149   1 H        2.258    14.001    -0.019
   150   1 H        2.318     5.452    -0.007
   151   1 H        2.449     8.291    -0.011
   152   1 H        2.267    15.299    -0.020
   153   1 H        2.758     0.965    -0.001
   154   1 H        2.199    14.402    -0.019
   155   1 H        2.364     5.040    -0.007
   156  15 P        3.209     7.325    -0.001
   157   8 O        2.187    23.953    -0.003
   158   8 O        2.256     9.022    -0.001
   159   8 O        2.629     0.883    -0.000
   160   6 C        2.821     0.501    -0.000
   161   6 C        3.184     0.179    -0.000
   162   8 O        2.802     7.813    -0.001
   163   6 C        3.136     0.526    -0.000
   164   8 O        2.274    15.651    -0.002
   165   6 C        3.031     1.363    -0.000
   166   6 C        3.316     0.869    -0.000
   167   7 N        3.573     0.582    -0.000
   168   6 C        3.163     3.148    -0.000
   169   7 N        2.777    12.964    -0.004
   170   6 C        3.775     3.255    -0.000
   171   6 C        3.352     4.234    -0.000
   172   8 O        2.548    12.006    -0.002
   173   7 N        3.307     2.166    -0.001
   174   6 C        3.554     3.870    -0.000
   175   7 N        2.629     5.568    -0.002
   176   7 N        2.984     8.875    -0.003
   177   6 C        3.893     3.784    -0.000
   178   1 H        2.138    13.244    -0.018
   179   1 H        2.126    11.456    -0.015
   180   1 H        2.182    15.157    -0.020
   181   1 H        2.261     8.316    -0.011
   182   1 H        1.958    18.078    -0.024
   183   1 H        2.187    15.893    -0.021
   184   1 H        2.149    16.027    -0.021
   185   1 H        2.282    13.569    -0.018
   186   1 H        2.310     4.976    -0.007
   187   1 H        3.187     0.527    -0.001
   188   1 H        2.542     3.071    -0.004
   189   1 H        2.216    20.572    -0.027
   190   8 O        2.283    14.313    -0.002
   191   6 C        2.718     1.818    -0.000
   192   6 C        3.204     0.221    -0.000
   193   8 O        2.783    10.118    -0.001
   194   6 C        3.453     0.000     0.000
   195   8 O        2.668     4.575    -0.001
   196   6 C        3.294     0.430    -0.000
   197   6 C        3.391     0.907    -0.000
   198   7 N        3.421     0.945    -0.000
   199   6 C        3.361     4.062    -0.000
   200   8 O        2.629     9.806    -0.001
   201   7 N        3.302     2.518    -0.001
   202   6 C        3.451     3.392    -0.000
   203   7 N        2.578     6.714    -0.002
   204   6 C        3.072     6.945    -0.000
   205   6 C        3.140     5.195    -0.000
   206   1 H        2.044    19.610    -0.026
   207   1 H        2.082    16.800    -0.022
   208   1 H        2.196    14.776    -0.020
   209   1 H        2.520     0.511    -0.001
   210   1 H        2.510     0.457    -0.001
   211   1 H        2.284     8.909    -0.012
   212   1 H        2.275    13.616    -0.018
   213   1 H        2.592     1.583    -0.002
   214   1 H        2.193    15.750    -0.021
   215   1 H        2.090    18.648    -0.025
   216   1 H        2.289     4.934    -0.007
   217   1 H        2.032    11.598    -0.015
   218  15 P        3.248    10.213    -0.001
   219   8 O        2.178    25.257    -0.003
   220   8 O        2.283    13.007    -0.002
   221   8 O        2.788     0.235    -0.000
   222   6 C        2.901     0.540    -0.000
   223   6 C        3.256     0.365    -0.000
   224   8 O        2.909     8.305    -0.001
   225   6 C        3.328     0.376    -0.000
   226   8 O        2.663     4.593    -0.001
   227   6 C        3.425     0.097    -0.000
   228   6 C        3.637     0.478    -0.000
   229   7 N        3.911     0.249    -0.000
   230   6 C        3.396     0.311    -0.000
   231   7 N        2.939     9.198    -0.003
   232   6 C        4.253     0.112    -0.000
   233   6 C        3.701     0.095    -0.000
   234   8 O        2.717     6.363    -0.001
   235   7 N        3.682     0.000    -0.000
   236   6 C        4.009     0.063    -0.000
   237   7 N        2.780     2.353    -0.001
   238   7 N        3.273     4.520    -0.001
   239   6 C        4.415     0.794    -0.000
   240   1 H        2.204     9.034    -0.012
   241   1 H        2.147    12.713    -0.017
   242   1 H        2.173    16.348    -0.022
   243   1 H        2.252    10.338    -0.014
   244   1 H        2.470     4.641    -0.006
   245   1 H        2.536     0.000    -0.000
   246   1 H        2.482     3.757    -0.005
   247   1 H        2.460     1.394    -0.002
   248   1 H        3.521     0.001    -0.000
   249   1 H        2.676     3.155    -0.004
   250   1 H        2.329    14.669    -0.020
   251  15 P        3.244     9.877    -0.001
   252   8 O        2.179    24.852    -0.003
   253   8 O        2.275    12.147    -0.002
   254   8 O        2.743     0.204    -0.000
   255   6 C        2.893     0.480    -0.000
   256   6 C        3.288     0.264    -0.000
   257   8 O        3.000     4.383    -0.001
   258   6 C        3.327     0.370    -0.000
   259   8 O        2.690     3.677    -0.001
   260   6 C        3.371     0.722    -0.000
   261   6 C        3.764     0.075    -0.000
   262   7 N        3.789     0.000    -0.000
   263   6 C        3.785     0.000    -0.000
   264   8 O        2.690     5.116    -0.001
   265   7 N        3.491     0.000    -0.000
   266   6 C        3.592     0.012    -0.000
   267   8 O        2.662     7.738    -0.001
   268   6 C        3.795     0.639    -0.000
   269   6 C        2.780     2.817    -0.000
   270   6 C        3.549     1.990    -0.000
   271   1 H        2.182    11.267    -0.015
   272   1 H        2.154    12.383    -0.017
   273   1 H        2.193    16.085    -0.021
   274   1 H        2.228    11.263    -0.015
   275   1 H        2.416     7.419    -0.010
   276   1 H        2.439     2.909    -0.004
   277   1 H        2.565     2.627    -0.004
   278   1 H        3.398     0.002    -0.000
   279   1 H        2.211     8.595    -0.011
   280   1 H        2.131    17.228    -0.023
   281   1 H        2.265     7.323    -0.010
   282   1 H        2.513     0.935    -0.001
   283  15 P        3.262     8.740    -0.001
   284   8 O        2.190    24.559    -0.003
   285   8 O        2.282    10.655    -0.001
   286   8 O        2.775     0.150    -0.000
   287   6 C        2.912     0.425    -0.000
   288   6 C        3.288     0.268    -0.000
   289   8 O        2.964     7.940    -0.001
   290   6 C        3.326     0.254    -0.000
   291   8 O        2.671     4.414    -0.001
   292   6 C        3.350     0.583    -0.000
   293   6 C        3.711     0.400    -0.000
   294   7 N        4.054     0.020    -0.000
   295   6 C        3.464     1.417    -0.000
   296   7 N        3.077     6.377    -0.002
   297   6 C        4.759     0.003    -0.000
   298   6 C        4.301     0.001    -0.000
   299   7 N        2.803     0.733    -0.000
   300   7 N        3.857     0.002    -0.000
   301   6 C        3.646     0.071    -0.000
   302   7 N        3.283     3.655    -0.001
   303   6 C        4.708     0.067    -0.000
   304   1 H        2.190    11.533    -0.015
   305   1 H        2.171    11.757    -0.016
   306   1 H        2.197    16.010    -0.021
   307   1 H        2.246     9.592    -0.013
   308   1 H        2.411     6.766    -0.009
   309   1 H        2.401     2.725    -0.004
   310   1 H        2.535     4.525    -0.006
   311   1 H        2.527     0.567    -0.001
   312   1 H        2.730     1.463    -0.002
   313   1 H        2.356    10.477    -0.014
   314   1 H        2.556     3.191    -0.004
   315  15 P        3.207     8.043    -0.001
   316   6 C        2.871     0.478    -0.000
   317   8 O        2.622     3.370    -0.000
   318   6 C        3.337     0.112    -0.000
   319   8 O        3.172     0.267    -0.000
   320   6 C        3.213     0.046    -0.000
   321   8 O        2.611     3.998    -0.001
   322   6 C        3.330     0.008    -0.000
   323   6 C        3.618     0.003    -0.000
   324   7 N        3.753     0.069    -0.000
   325   6 C        3.702     0.415    -0.000
   326   8 O        2.833     3.563    -0.000
   327   7 N        3.634     0.044    -0.000
   328   6 C        3.740     1.923    -0.000
   329   7 N        2.679     2.758    -0.001
   330   6 C        3.310     4.702    -0.000
   331   6 C        3.384     2.896    -0.000
   332   8 O        2.177    25.475    -0.003
   333   8 O        2.242     9.678    -0.001
   334   9 F        2.332     2.728    -0.000
   335   9 F        2.258     9.948    -0.001
   336   1 H        2.131    14.573    -0.019
   337   1 H        2.212    10.078    -0.013
   338   1 H        2.285    13.620    -0.018
   339   1 H        2.256     8.033    -0.011
   340   1 H        2.496     6.635    -0.009
   341   1 H        2.250    16.224    -0.022
   342   1 H        2.774     0.947    -0.001
   343   1 H        2.177    14.687    -0.020
   344   1 H        2.371     5.658    -0.008
   345  15 P        3.225     7.062    -0.001
   346   8 O        2.188    24.489    -0.003
   347   8 O        2.264     6.717    -0.001
   348   8 O        2.688     0.305    -0.000
   349   6 C        2.866     0.444    -0.000
   350   6 C        3.200     0.226    -0.000
   351   8 O        2.845     9.131    -0.001
   352   6 C        3.093     1.016    -0.000
   353   8 O        2.276    17.750    -0.002
   354   6 C        3.061     1.338    -0.000
   355   6 C        3.372     0.359    -0.000
   356   7 N        3.523     0.908    -0.000
   357   6 C        3.132     4.806    -0.000
   358   7 N        2.757    12.191    -0.004
   359   6 C        3.713     3.310    -0.000
   360   6 C        3.290     4.379    -0.000
   361   8 O        2.503    14.626    -0.002
   362   7 N        3.256     2.364    -0.001
   363   6 C        3.526     3.856    -0.000
   364   7 N        2.613     5.790    -0.002
   365   7 N        2.967     8.794    -0.003
   366   6 C        3.859     4.484    -0.000
   367   1 H        2.171    12.447    -0.017
   368   1 H        2.142    12.420    -0.017
   369   1 H        2.175    14.970    -0.020
   370   1 H        2.157    14.237    -0.019
   371   1 H        2.009    15.010    -0.020
   372   1 H        2.301     8.694    -0.012
   373   1 H        2.128    18.110    -0.024
   374   1 H        2.328    10.699    -0.014
   375   1 H        2.297     4.189    -0.006
   376   1 H        3.153     1.108    -0.001
   377   1 H        2.514     4.010    -0.005
   378   1 H        2.209    20.703    -0.028
   379   1 H        1.910    23.357    -0.031
   380   1 H        1.898    23.960    -0.032
   381   1 H        1.973    16.061    -0.021
   382   1 H        2.001    11.421    -0.015
   383   1 H        2.050     9.092    -0.012
   384   1 H        1.909    23.288    -0.031
   385   1 H        1.903    23.374    -0.031
   386   1 H        1.912    23.679    -0.032
   387   1 H        1.911    23.898    -0.032
   388   1 H        2.055    11.121    -0.015

 total SASA / Å² :     2416.206

     #   Z          covCN         q      C6AA      α(0)
     1   8 O        1.654    -0.468    22.216     6.363
     2   6 C        3.674     0.059    19.804     6.377
     3   6 C        3.792     0.089    19.117     6.227
     4   8 O        1.699    -0.323    19.400     5.947
     5   6 C        3.956     0.109    18.731     6.150
     6   8 O        1.658    -0.342    19.759     6.001
     7   6 C        3.837    -0.091    22.204     6.704
     8   6 C        3.712     0.167    18.044     6.070
     9   7 N        2.738    -0.094    23.079     7.135
    10   6 C        2.741     0.330    21.386     7.572
    11   8 O        0.861    -0.525    24.351     6.616
    12   7 N        1.858    -0.364    30.337     8.164
    13   6 C        2.867     0.193    23.885     8.011
    14   7 N        2.663    -0.259    26.710     7.676
    15   6 C        2.909    -0.092    30.319     9.029
    16   6 C        2.861     0.036    27.197     8.548
    17   1 H        0.925     0.061     2.191     2.315
    18   1 H        0.924     0.068     2.104     2.269
    19   1 H        0.925     0.064     2.153     2.294
    20   1 H        0.924     0.060     2.198     2.318
    21   1 H        0.925     0.068     2.107     2.270
    22   1 H        0.925     0.080     1.983     2.202
    23   1 H        0.924     0.086     1.918     2.166
    24   1 H        0.860     0.242     0.914     1.497
    25   1 H        0.861     0.234     0.947     1.525
    26   1 H        0.926     0.105     1.744     2.065
    27   1 H        0.925     0.096     1.824     2.112
    28   1 H        0.805     0.332     0.632     1.249
    29  15 P        3.743     0.759   130.692    20.536
    30   8 O        0.808    -0.566    25.333     6.747
    31   8 O        1.614    -0.382    20.535     6.116
    32   8 O        1.657    -0.341    19.734     5.997
    33   6 C        3.882     0.062    19.490     6.277
    34   6 C        3.779     0.087    19.160     6.236
    35   8 O        1.698    -0.313    19.232     5.921
    36   6 C        3.919     0.106    18.792     6.161
    37   8 O        1.657    -0.337    19.659     5.985
    38   6 C        3.831    -0.105    22.479     6.746
    39   6 C        3.694     0.162    18.151     6.095
    40   7 N        2.809    -0.066    22.523     7.049
    41   6 C        3.167     0.082    25.838     8.306
    42   7 N        1.869    -0.269    27.837     7.821
    43   6 C        3.204    -0.012    27.709     8.575
    44   6 C        2.768     0.262    22.579     7.782
    45   8 O        0.859    -0.478    23.312     6.473
    46   7 N        2.710    -0.206    25.490     7.498
    47   6 C        2.829     0.238    23.034     7.864
    48   7 N        2.661    -0.285    27.358     7.768
    49   7 N        1.845    -0.354    30.072     8.127
    50   6 C        3.097     0.122    25.204     8.228
    51   1 H        0.925     0.070     2.083     2.257
    52   1 H        0.924     0.074     2.038     2.232
    53   1 H        0.925     0.096     1.819     2.109
    54   1 H        0.924     0.077     2.014     2.219
    55   1 H        0.925     0.097     1.810     2.104
    56   1 H        0.925     0.091     1.871     2.139
    57   1 H        0.924     0.083     1.947     2.182
    58   1 H        0.925     0.069     2.096     2.264
    59   1 H        0.861     0.234     0.949     1.526
    60   1 H        0.860     0.242     0.916     1.499
    61   1 H        0.861     0.233     0.954     1.530
    62  15 P        3.700     0.744   131.220    20.577
    63   8 O        0.808    -0.580    25.672     6.792
    64   8 O        1.614    -0.377    20.427     6.100
    65   8 O        1.657    -0.339    19.699     5.992
    66   6 C        3.869     0.059    19.541     6.286
    67   6 C        3.803     0.087    19.139     6.228
    68   8 O        1.700    -0.311    19.193     5.915
    69   6 C        3.931     0.106    18.781     6.159
    70   8 O        1.657    -0.347    19.850     6.014
    71   6 C        3.835    -0.106    22.496     6.748
    72   6 C        3.751     0.172    17.902     6.034
    73   7 N        2.738    -0.069    22.585     7.058
    74   6 C        2.703     0.327    21.436     7.578
    75   8 O        0.859    -0.496    23.698     6.527
    76   7 N        2.700    -0.206    25.483     7.497
    77   6 C        2.761     0.274    22.364     7.744
    78   8 O        0.859    -0.446    22.613     6.376
    79   6 C        2.953    -0.038    28.955     8.826
    80   6 C        3.756    -0.138    23.214     6.870
    81   6 C        2.850     0.016    27.654     8.619
    82   1 H        0.925     0.081     1.971     2.195
    83   1 H        0.924     0.074     2.040     2.234
    84   1 H        0.925     0.091     1.870     2.138
    85   1 H        0.924     0.077     2.008     2.216
    86   1 H        0.925     0.108     1.716     2.048
    87   1 H        0.925     0.085     1.924     2.169
    88   1 H        0.924     0.060     2.199     2.319
    89   1 H        0.861     0.236     0.941     1.520
    90   1 H        0.925     0.087     1.911     2.162
    91   1 H        0.924     0.100     1.781     2.087
    92   1 H        0.925     0.078     1.995     2.209
    93   1 H        0.925     0.116     1.644     2.005
    94  15 P        3.700     0.755   130.831    20.547
    95   8 O        0.808    -0.580    25.665     6.791
    96   8 O        1.614    -0.381    20.516     6.113
    97   8 O        1.657    -0.344    19.795     6.006
    98   6 C        3.879     0.062    19.497     6.278
    99   6 C        3.786     0.091    19.096     6.224
   100   8 O        1.700    -0.322    19.379     5.943
   101   6 C        3.956     0.108    18.750     6.153
   102   8 O        1.658    -0.348    19.865     6.017
   103   6 C        3.826    -0.100    22.385     6.732
   104   6 C        3.723     0.172    17.940     6.049
   105   7 N        2.837    -0.067    22.544     7.052
   106   6 C        3.164     0.099    25.498     8.253
   107   7 N        1.872    -0.287    28.289     7.884
   108   6 C        3.228     0.004    27.137     8.461
   109   6 C        2.898     0.170    24.350     8.091
   110   7 N        2.659    -0.258    26.700     7.674
   111   7 N        1.855    -0.327    29.346     8.029
   112   6 C        2.916     0.153    24.689     8.148
   113   7 N        1.827    -0.343    29.764     8.084
   114   6 C        3.142     0.140    24.730     8.137
   115   1 H        0.925     0.072     2.062     2.245
   116   1 H        0.924     0.074     2.043     2.235
   117   1 H        0.925     0.088     1.901     2.156
   118   1 H        0.924     0.075     2.036     2.232
   119   1 H        0.925     0.094     1.840     2.121
   120   1 H        0.925     0.080     1.978     2.199
   121   1 H        0.924     0.068     2.107     2.270
   122   1 H        0.926     0.075     2.028     2.227
   123   1 H        0.860     0.258     0.854     1.448
   124   1 H        0.861     0.230     0.963     1.537
   125   1 H        0.925     0.023     2.686     2.563
   126  15 P        3.742     0.759   130.688    20.536
   127   6 C        3.886     0.065    19.449     6.270
   128   8 O        1.657    -0.332    19.574     5.972
   129   6 C        3.833     0.090    19.067     6.213
   130   8 O        1.701    -0.308    19.129     5.905
   131   6 C        3.969     0.097    18.911     6.179
   132   8 O        1.657    -0.334    19.606     5.977
   133   6 C        3.537     0.303    16.955     6.041
   134   6 C        3.762     0.169    17.934     6.037
   135   7 N        2.742    -0.093    23.051     7.131
   136   6 C        2.763     0.339    21.244     7.548
   137   8 O        0.863    -0.532    24.513     6.638
   138   7 N        1.867    -0.348    29.893     8.104
   139   6 C        2.894     0.198    23.794     7.998
   140   7 N        2.676    -0.247    26.431     7.636
   141   6 C        2.917    -0.098    30.472     9.052
   142   6 C        2.868     0.044    27.017     8.520
   143   8 O        0.808    -0.584    25.767     6.804
   144   8 O        1.614    -0.380    20.481     6.108
   145   9 F        0.785    -0.222    11.470     4.001
   146   9 F        0.784    -0.219    11.435     3.994
   147   1 H        0.924     0.096     1.823     2.112
   148   1 H        0.924     0.089     1.892     2.151
   149   1 H        0.925     0.082     1.956     2.187
   150   1 H        0.924     0.100     1.782     2.087
   151   1 H        0.924     0.089     1.890     2.150
   152   1 H        0.861     0.252     0.874     1.465
   153   1 H        0.860     0.265     0.827     1.425
   154   1 H        0.926     0.112     1.678     2.026
   155   1 H        0.925     0.082     1.963     2.191
   156  15 P        3.776     0.775   130.140    20.492
   157   8 O        0.808    -0.581    25.684     6.793
   158   8 O        1.614    -0.396    20.790     6.154
   159   8 O        1.657    -0.342    19.764     6.001
   160   6 C        3.889     0.071    19.351     6.254
   161   6 C        3.787     0.086    19.163     6.235
   162   8 O        1.700    -0.329    19.514     5.964
   163   6 C        3.737     0.110    18.861     6.197
   164   8 O        1.655    -0.465    22.160     6.355
   165   6 C        3.832    -0.089    22.176     6.700
   166   6 C        3.704     0.162    18.133     6.088
   167   7 N        2.822    -0.073    22.650     7.068
   168   6 C        3.161     0.102    25.429     8.243
   169   7 N        1.877    -0.310    28.880     7.966
   170   6 C        3.201    -0.008    27.657     8.570
   171   6 C        2.769     0.263    22.562     7.779
   172   8 O        0.860    -0.493    23.635     6.518
   173   7 N        2.712    -0.202    25.390     7.484
   174   6 C        2.835     0.240    23.000     7.859
   175   7 N        2.663    -0.285    27.360     7.769
   176   7 N        1.846    -0.365    30.350     8.165
   177   6 C        3.110     0.125    25.115     8.210
   178   1 H        0.924     0.066     2.133     2.284
   179   1 H        0.925     0.074     2.042     2.235
   180   1 H        0.925     0.080     1.977     2.199
   181   1 H        0.924     0.036     2.503     2.474
   182   1 H        0.805     0.346     0.598     1.214
   183   1 H        0.924     0.072     2.069     2.249
   184   1 H        0.925     0.097     1.810     2.104
   185   1 H        0.924     0.089     1.893     2.152
   186   1 H        0.925     0.042     2.420     2.433
   187   1 H        0.861     0.239     0.926     1.507
   188   1 H        0.860     0.253     0.871     1.462
   189   1 H        0.861     0.249     0.888     1.476
   190   8 O        1.653    -0.460    22.059     6.340
   191   6 C        3.673     0.056    19.861     6.387
   192   6 C        3.793     0.089    19.122     6.227
   193   8 O        1.699    -0.316    19.281     5.928
   194   6 C        3.981     0.110    18.717     6.147
   195   8 O        1.658    -0.349    19.891     6.021
   196   6 C        3.837    -0.089    22.174     6.699
   197   6 C        3.715     0.167    18.031     6.067
   198   7 N        2.736    -0.096    23.115     7.141
   199   6 C        2.744     0.330    21.393     7.573
   200   8 O        0.861    -0.535    24.570     6.646
   201   7 N        1.857    -0.366    30.399     8.172
   202   6 C        2.867     0.196    23.838     8.003
   203   7 N        2.662    -0.255    26.634     7.665
   204   6 C        2.908    -0.093    30.339     9.032
   205   6 C        2.858     0.039    27.122     8.536
   206   1 H        0.925     0.088     1.898     2.154
   207   1 H        0.924     0.054     2.268     2.355
   208   1 H        0.925     0.063     2.163     2.300
   209   1 H        0.924     0.048     2.349     2.397
   210   1 H        0.925     0.069     2.097     2.264
   211   1 H        0.925     0.080     1.982     2.202
   212   1 H        0.924     0.083     1.951     2.184
   213   1 H        0.860     0.242     0.916     1.499
   214   1 H        0.861     0.241     0.921     1.503
   215   1 H        0.926     0.101     1.779     2.086
   216   1 H        0.926     0.103     1.762     2.076
   217   1 H        0.804     0.328     0.644     1.260
   218  15 P        3.771     0.765   130.500    20.521
   219   8 O        0.808    -0.559    25.164     6.724
   220   8 O        1.614    -0.374    20.382     6.093
   221   8 O        1.657    -0.342    19.756     6.000
   222   6 C        3.889     0.062    19.495     6.277
   223   6 C        3.781     0.089    19.132     6.231
   224   8 O        1.698    -0.312    19.213     5.918
   225   6 C        3.942     0.105    18.794     6.160
   226   8 O        1.658    -0.349    19.891     6.021
   227   6 C        3.830    -0.110    22.573     6.760
   228   6 C        3.700     0.165    18.088     6.082
   229   7 N        2.815    -0.066    22.517     7.048
   230   6 C        3.160     0.083    25.839     8.310
   231   7 N        1.872    -0.275    27.984     7.841
   232   6 C        3.208    -0.007    27.564     8.548
   233   6 C        2.769     0.266    22.517     7.771
   234   8 O        0.860    -0.477    23.290     6.470
   235   7 N        2.712    -0.204    25.431     7.490
   236   6 C        2.826     0.238    23.027     7.863
   237   7 N        2.661    -0.287    27.394     7.773
   238   7 N        1.841    -0.359    30.184     8.142
   239   6 C        3.085     0.122    25.223     8.233
   240   1 H        0.925     0.073     2.048     2.238
   241   1 H        0.924     0.072     2.062     2.246
   242   1 H        0.925     0.095     1.836     2.119
   243   1 H        0.924     0.073     2.058     2.243
   244   1 H        0.925     0.101     1.779     2.086
   245   1 H        0.925     0.083     1.944     2.180
   246   1 H        0.924     0.081     1.966     2.193
   247   1 H        0.925     0.071     2.076     2.253
   248   1 H        0.860     0.232     0.957     1.533
   249   1 H        0.860     0.242     0.913     1.497
   250   1 H        0.861     0.238     0.933     1.513
   251  15 P        3.750     0.757   130.768    20.542
   252   8 O        0.808    -0.564    25.270     6.738
   253   8 O        1.614    -0.376    20.417     6.099
   254   8 O        1.657    -0.338    19.694     5.991
   255   6 C        3.901     0.060    19.520     6.280
   256   6 C        3.801     0.089    19.113     6.224
   257   8 O        1.701    -0.310    19.168     5.911
   258   6 C        3.924     0.106    18.790     6.161
   259   8 O        1.657    -0.349    19.892     6.021
   260   6 C        3.833    -0.111    22.601     6.764
   261   6 C        3.740     0.170    17.943     6.044
   262   7 N        2.737    -0.068    22.564     7.055
   263   6 C        2.701     0.327    21.442     7.579
   264   8 O        0.859    -0.500    23.784     6.539
   265   7 N        2.698    -0.204    25.426     7.489
   266   6 C        2.761     0.274    22.369     7.745
   267   8 O        0.859    -0.444    22.572     6.370
   268   6 C        2.950    -0.040    28.988     8.831
   269   6 C        3.754    -0.138    23.220     6.871
   270   6 C        2.845     0.013    27.714     8.628
   271   1 H        0.925     0.081     1.967     2.193
   272   1 H        0.924     0.070     2.083     2.257
   273   1 H        0.925     0.088     1.898     2.154
   274   1 H        0.924     0.075     2.030     2.228
   275   1 H        0.925     0.109     1.703     2.041
   276   1 H        0.925     0.089     1.889     2.149
   277   1 H        0.924     0.067     2.122     2.278
   278   1 H        0.861     0.236     0.939     1.518
   279   1 H        0.925     0.083     1.953     2.185
   280   1 H        0.925     0.105     1.743     2.065
   281   1 H        0.925     0.081     1.968     2.194
   282   1 H        0.926     0.114     1.664     2.017
   283  15 P        3.744     0.767   130.416    20.514
   284   8 O        0.808    -0.575    25.546     6.775
   285   8 O        1.614    -0.380    20.489     6.109
   286   8 O        1.657    -0.346    19.836     6.012
   287   6 C        3.922     0.062    19.480     6.273
   288   6 C        3.794     0.091    19.086     6.221
   289   8 O        1.701    -0.318    19.309     5.933
   290   6 C        3.946     0.106    18.781     6.158
   291   8 O        1.658    -0.337    19.667     5.987
   292   6 C        3.829    -0.102    22.431     6.739
   293   6 C        3.722     0.170    17.971     6.054
   294   7 N        2.836    -0.067    22.528     7.049
   295   6 C        3.171     0.093    25.587     8.263
   296   7 N        1.872    -0.282    28.177     7.868
   297   6 C        3.237     0.002    27.083     8.442
   298   6 C        2.899     0.170    24.349     8.091
   299   7 N        2.658    -0.263    26.822     7.692
   300   7 N        1.853    -0.329    29.384     8.034
   301   6 C        2.916     0.155    24.642     8.140
   302   7 N        1.827    -0.342    29.732     8.080
   303   6 C        3.138     0.139    24.763     8.144
   304   1 H        0.924     0.072     2.064     2.247
   305   1 H        0.924     0.070     2.082     2.256
   306   1 H        0.925     0.087     1.907     2.160
   307   1 H        0.924     0.078     2.003     2.213
   308   1 H        0.925     0.096     1.826     2.113
   309   1 H        0.925     0.084     1.934     2.175
   310   1 H        0.924     0.070     2.086     2.259
   311   1 H        0.926     0.078     1.995     2.209
   312   1 H        0.860     0.254     0.868     1.459
   313   1 H        0.861     0.233     0.952     1.529
   314   1 H        0.925     0.021     2.719     2.578
   315  15 P        3.717     0.743   131.247    20.579
   316   6 C        3.867     0.064    19.475     6.275
   317   8 O        1.656    -0.333    19.597     5.976
   318   6 C        3.815     0.090    19.089     6.219
   319   8 O        1.700    -0.304    19.072     5.896
   320   6 C        3.906     0.093    18.992     6.195
   321   8 O        1.655    -0.327    19.494     5.960
   322   6 C        3.535     0.307    16.920     6.037
   323   6 C        3.742     0.172    17.910     6.038
   324   7 N        2.740    -0.088    22.957     7.116
   325   6 C        2.764     0.339    21.240     7.548
   326   8 O        0.863    -0.527    24.396     6.622
   327   7 N        1.874    -0.350    29.941     8.111
   328   6 C        2.893     0.194    23.864     8.009
   329   7 N        2.681    -0.255    26.625     7.664
   330   6 C        2.915    -0.101    30.545     9.063
   331   6 C        2.870     0.043    27.042     8.524
   332   8 O        0.808    -0.580    25.661     6.790
   333   8 O        1.614    -0.372    20.346     6.088
   334   9 F        0.785    -0.220    11.448     3.997
   335   9 F        0.784    -0.215    11.392     3.987
   336   1 H        0.924     0.095     1.833     2.117
   337   1 H        0.924     0.087     1.908     2.160
   338   1 H        0.924     0.083     1.947     2.182
   339   1 H        0.924     0.109     1.705     2.042
   340   1 H        0.924     0.082     1.958     2.188
   341   1 H        0.861     0.254     0.868     1.459
   342   1 H        0.860     0.259     0.848     1.442
   343   1 H        0.926     0.119     1.624     1.993
   344   1 H        0.925     0.092     1.863     2.134
   345  15 P        3.745     0.763   130.567    20.526
   346   8 O        0.808    -0.583    25.735     6.800
   347   8 O        1.614    -0.389    20.664     6.135
   348   8 O        1.657    -0.340    19.717     5.994
   349   6 C        3.912     0.067    19.402     6.261
   350   6 C        3.778     0.085    19.199     6.242
   351   8 O        1.700    -0.331    19.548     5.969
   352   6 C        3.743     0.102    18.970     6.214
   353   8 O        1.655    -0.465    22.159     6.355
   354   6 C        3.821    -0.097    22.341     6.727
   355   6 C        3.710     0.165    18.067     6.074
   356   7 N        2.825    -0.067    22.535     7.050
   357   6 C        3.160     0.101    25.465     8.250
   358   7 N        1.873    -0.301    28.642     7.933
   359   6 C        3.221    -0.006    27.428     8.514
   360   6 C        2.769     0.263    22.575     7.781
   361   8 O        0.859    -0.504    23.868     6.550
   362   7 N        2.715    -0.203    25.409     7.487
   363   6 C        2.833     0.238    23.026     7.863
   364   7 N        2.660    -0.283    27.293     7.759
   365   7 N        1.840    -0.357    30.155     8.138
   366   6 C        3.092     0.125    25.160     8.221
   367   1 H        0.924     0.055     2.253     2.347
   368   1 H        0.924     0.068     2.105     2.269
   369   1 H        0.925     0.081     1.972     2.196
   370   1 H        0.924     0.068     2.106     2.269
   371   1 H        0.805     0.341     0.609     1.225
   372   1 H        0.925     0.067     2.116     2.275
   373   1 H        0.925     0.093     1.850     2.127
   374   1 H        0.924     0.079     1.989     2.206
   375   1 H        0.925     0.048     2.340     2.392
   376   1 H        0.861     0.240     0.922     1.504
   377   1 H        0.860     0.251     0.879     1.469
   378   1 H        0.861     0.251     0.879     1.468
   379   1 H        0.902     0.471     0.368     0.949
   380   1 H        0.897     0.467     0.373     0.956
   381   1 H        0.900     0.455     0.389     0.976
   382   1 H        0.897     0.445     0.403     0.994
   383   1 H        0.897     0.430     0.427     1.022
   384   1 H        0.899     0.473     0.365     0.946
   385   1 H        0.899     0.471     0.368     0.949
   386   1 H        0.898     0.467     0.373     0.956
   387   1 H        0.897     0.464     0.377     0.961
   388   1 H        0.896     0.435     0.419     1.013

 Mol. C6AA /au·bohr⁶  :    1956233.242752
 Mol. C8AA /au·bohr⁸  :   48401157.287453
 Mol. α(0) /au        :       2112.396787


Wiberg/Mayer (AO) data.
largest (>0.10) Wiberg bond orders for each atom

 ---------------------------------------------------------------------------
     #   Z sym  total        # sym  WBO       # sym  WBO       # sym  WBO
 ---------------------------------------------------------------------------
     1   8 O    1.935 --     2 C    1.009    28 H    0.860
     2   6 C    3.959 --     1 O    1.009     3 C    0.981    18 H    0.968
                            17 H    0.967
     3   6 C    3.941 --     2 C    0.981     5 C    0.970     4 O    0.960
                            19 H    0.957
     4   8 O    2.085 --     8 C    0.978     3 C    0.960
     5   6 C    3.927 --     7 C    0.988     3 C    0.970    20 H    0.953
                             6 O    0.939
     6   8 O    2.268 --    29 P    1.120     5 C    0.939
     7   6 C    3.988 --     5 C    0.988     8 C    0.984    21 H    0.968
                            22 H    0.967
     8   6 C    3.933 --     7 C    0.984     4 O    0.978    23 H    0.952
                             9 N    0.945
     9   7 N    3.573 --    16 C    1.204    10 C    1.081     8 C    0.945
                            11 O    0.113
    10   6 C    3.953 --    11 O    1.533    12 N    1.243     9 N    1.081
    11   8 O    1.932 --    10 C    1.533    12 N    0.120     9 N    0.113
    12   7 N    3.069 --    13 C    1.352    10 C    1.243    11 O    0.120
                            14 N    0.105
    13   6 C    3.966 --    14 N    1.357    12 N    1.352    15 C    1.160
    14   7 N    3.418 --    13 C    1.357    25 H    0.917    24 H    0.869
                            12 N    0.105
    15   6 C    3.976 --    16 C    1.648    13 C    1.160    26 H    0.957
    16   6 C    3.957 --    15 C    1.648     9 N    1.204    27 H    0.947
    17   1 H    0.996 --     2 C    0.967
    18   1 H    0.995 --     2 C    0.968
    19   1 H    0.996 --     3 C    0.957
    20   1 H    0.996 --     5 C    0.953
    21   1 H    0.995 --     7 C    0.968
    22   1 H    0.993 --     7 C    0.967
    23   1 H    0.992 --     8 C    0.952
    24   1 H    0.941 --    14 N    0.869
    25   1 H    0.944 --    14 N    0.917
    26   1 H    0.988 --    15 C    0.957
    27   1 H    0.990 --    16 C    0.947
    28   1 H    0.890 --     1 O    0.860
    29  15 P    5.437 --    30 O    1.784    31 O    1.362     6 O    1.120
                            32 O    1.104
    30   8 O    1.992 --    29 P    1.784
    31   8 O    2.289 --    29 P    1.362   388 H    0.756
    32   8 O    2.254 --    29 P    1.104    33 C    0.945
    33   6 C    3.923 --    34 C    0.982    52 H    0.966    51 H    0.965
                            32 O    0.945
    34   6 C    3.949 --    33 C    0.982    36 C    0.973    35 O    0.968
                            53 H    0.950
    35   8 O    2.081 --    39 C    0.975    34 C    0.968
    36   6 C    3.929 --    38 C    0.992    34 C    0.973    54 H    0.959
                            37 O    0.932
    37   8 O    2.268 --    62 P    1.130    36 C    0.932
    38   6 C    3.984 --    36 C    0.992    39 C    0.985    55 H    0.962
                            56 H    0.959
    39   6 C    3.931 --    38 C    0.985    35 O    0.975    57 H    0.953
                            40 N    0.948
    40   7 N    3.591 --    41 C    1.191    50 C    1.170    39 C    0.948
                            42 N    0.113
    41   6 C    3.942 --    42 N    1.608    40 N    1.191    58 H    0.938
    42   7 N    3.017 --    41 C    1.608    43 C    1.194    40 N    0.113
    43   6 C    3.963 --    50 C    1.348    42 N    1.194    44 C    1.131
    44   6 C    3.947 --    45 O    1.568    43 C    1.131    46 N    1.130
    45   8 O    1.977 --    44 C    1.568    46 N    0.133
    46   7 N    3.510 --    47 C    1.172    44 C    1.130    59 H    0.853
                            45 O    0.133
    47   6 C    3.965 --    49 N    1.373    48 N    1.322    46 N    1.172
    48   7 N    3.378 --    47 C    1.322    61 H    0.923    60 H    0.864
                            49 N    0.104
    49   7 N    2.968 --    47 C    1.373    50 C    1.237    48 N    0.104
    50   6 C    3.960 --    43 C    1.348    49 N    1.237    40 N    1.170
    51   1 H    0.995 --    33 C    0.965
    52   1 H    0.994 --    33 C    0.966
    53   1 H    0.990 --    34 C    0.950
    54   1 H    0.994 --    36 C    0.959
    55   1 H    0.990 --    38 C    0.962
    56   1 H    0.992 --    38 C    0.959
    57   1 H    0.993 --    39 C    0.953
    58   1 H    0.994 --    41 C    0.938
    59   1 H    0.945 --    46 N    0.853
    60   1 H    0.941 --    48 N    0.864
    61   1 H    0.945 --    48 N    0.923
    62  15 P    5.443 --    63 O    1.762    64 O    1.389    37 O    1.130
                            65 O    1.097
    63   8 O    1.978 --    62 P    1.762
    64   8 O    2.301 --    62 P    1.389   387 H    0.750
    65   8 O    2.249 --    62 P    1.097    66 C    0.947
    66   6 C    3.927 --    67 C    0.984    83 H    0.966    82 H    0.965
                            65 O    0.947
    67   6 C    3.947 --    66 C    0.984    69 C    0.968    68 O    0.965
                            84 H    0.951
    68   8 O    2.074 --    72 C    0.973    67 C    0.965
    69   6 C    3.926 --    71 C    0.995    67 C    0.968    85 H    0.959
                            70 O    0.930
    70   8 O    2.259 --    94 P    1.115    69 C    0.930
    71   6 C    3.982 --    69 C    0.995    72 C    0.982    87 H    0.960
                            86 H    0.957
    72   6 C    3.934 --    71 C    0.982    68 O    0.973    73 N    0.956
                            88 H    0.952
    73   7 N    3.576 --    81 C    1.155    74 C    1.125    72 C    0.956
                            75 O    0.133
    74   6 C    3.959 --    75 O    1.606    76 N    1.146    73 N    1.125
    75   8 O    1.950 --    74 C    1.606    73 N    0.133    76 N    0.130
    76   7 N    3.515 --    74 C    1.146    77 C    1.140    89 H    0.849
                            78 O    0.140    75 O    0.130
    77   6 C    3.938 --    78 O    1.615    76 N    1.140    79 C    1.086
    78   8 O    2.018 --    77 C    1.615    76 N    0.140
    79   6 C    3.977 --    81 C    1.652    77 C    1.086    80 C    1.019
    80   6 C    3.976 --    79 C    1.019    90 H    0.978    91 H    0.966
                            92 H    0.962
    81   6 C    3.944 --    79 C    1.652    73 N    1.155    93 H    0.942
    82   1 H    0.993 --    66 C    0.965
    83   1 H    0.994 --    66 C    0.966
    84   1 H    0.991 --    67 C    0.951
    85   1 H    0.993 --    69 C    0.959
    86   1 H    0.988 --    71 C    0.957
    87   1 H    0.993 --    71 C    0.960
    88   1 H    0.996 --    72 C    0.952
    89   1 H    0.944 --    76 N    0.849
    90   1 H    0.992 --    80 C    0.978
    91   1 H    0.989 --    80 C    0.966
    92   1 H    0.992 --    80 C    0.962
    93   1 H    0.986 --    81 C    0.942
    94  15 P    5.421 --    95 O    1.759    96 O    1.384    70 O    1.115
                            97 O    1.090
    95   8 O    1.975 --    94 P    1.759
    96   8 O    2.294 --    94 P    1.384   386 H    0.748
    97   8 O    2.245 --    94 P    1.090    98 C    0.948
    98   6 C    3.927 --    99 C    0.979   115 H    0.967   116 H    0.965
                            97 O    0.948
    99   6 C    3.949 --    98 C    0.979   101 C    0.972   100 O    0.970
                           117 H    0.951
   100   8 O    2.080 --   104 C    0.971    99 C    0.970
   101   6 C    3.930 --   103 C    0.991    99 C    0.972   118 H    0.958
                           102 O    0.935
   102   8 O    2.258 --   126 P    1.110   101 C    0.935
   103   6 C    3.986 --   101 C    0.991   104 C    0.983   120 H    0.966
                           119 H    0.964
   104   6 C    3.936 --   103 C    0.983   100 O    0.971   105 N    0.959
                           121 H    0.955
   105   7 N    3.601 --   106 C    1.213   114 C    1.161   104 C    0.959
                           107 N    0.111
   106   6 C    3.948 --   107 N    1.599   105 N    1.213   122 H    0.947
   107   7 N    2.997 --   106 C    1.599   108 C    1.178   105 N    0.111
   108   6 C    3.968 --   114 C    1.336   109 C    1.191   107 N    1.178
   109   6 C    3.974 --   110 N    1.349   111 N    1.294   108 C    1.191
   110   7 N    3.427 --   109 C    1.349   124 H    0.928   123 H    0.862
   111   7 N    3.086 --   112 C    1.404   109 C    1.294
   112   6 C    3.972 --   113 N    1.471   111 N    1.404   125 H    0.958
   113   7 N    3.007 --   112 C    1.471   114 C    1.251
   114   6 C    3.957 --   108 C    1.336   113 N    1.251   105 N    1.161
   115   1 H    0.994 --    98 C    0.967
   116   1 H    0.994 --    98 C    0.965
   117   1 H    0.991 --    99 C    0.951
   118   1 H    0.994 --   101 C    0.958
   119   1 H    0.991 --   103 C    0.964
   120   1 H    0.994 --   103 C    0.966
   121   1 H    0.995 --   104 C    0.955
   122   1 H    0.993 --   106 C    0.947
   123   1 H    0.933 --   110 N    0.862
   124   1 H    0.947 --   110 N    0.928
   125   1 H    0.999 --   112 C    0.958
   126  15 P    5.422 --   143 O    1.760   144 O    1.385   102 O    1.110
                           128 O    1.098
   127   6 C    3.925 --   129 C    0.989   148 H    0.964   147 H    0.963
                           128 O    0.952
   128   8 O    2.250 --   126 P    1.098   127 C    0.952
   129   6 C    3.941 --   127 C    0.989   131 C    0.962   130 O    0.962
                           149 H    0.951
   130   8 O    2.073 --   134 C    0.980   129 C    0.962
   131   6 C    3.937 --   132 O    0.966   129 C    0.962   133 C    0.948
                           150 H    0.948
   132   8 O    2.258 --   156 P    1.082   131 C    0.966
   133   6 C    3.846 --   131 C    0.948   146 F    0.941   145 F    0.940
                           134 C    0.936
   134   6 C    3.947 --   130 O    0.980   135 N    0.976   151 H    0.946
                           133 C    0.936
   135   7 N    3.552 --   142 C    1.184   136 C    1.062   134 C    0.976
                           137 O    0.107
   136   6 C    3.948 --   137 O    1.529   138 N    1.260   135 N    1.062
   137   8 O    1.930 --   136 C    1.529   138 N    0.122   135 N    0.107
   138   7 N    3.064 --   139 C    1.341   136 C    1.260   137 O    0.122
                           140 N    0.109
   139   6 C    3.971 --   140 N    1.393   138 N    1.341   141 C    1.147
   140   7 N    3.444 --   139 C    1.393   152 H    0.914   153 H    0.852
                           138 N    0.109
   141   6 C    3.972 --   142 C    1.664   139 C    1.147   154 H    0.955
   142   6 C    3.950 --   141 C    1.664   135 N    1.184   155 H    0.956
   143   8 O    1.969 --   126 P    1.760
   144   8 O    2.293 --   126 P    1.385   385 H    0.743
   145   9 F    1.050 --   133 C    0.940
   146   9 F    1.050 --   133 C    0.941
   147   1 H    0.990 --   127 C    0.963
   148   1 H    0.992 --   127 C    0.964
   149   1 H    0.993 --   129 C    0.951
   150   1 H    0.990 --   131 C    0.948
   151   1 H    0.992 --   134 C    0.946
   152   1 H    0.936 --   140 N    0.914
   153   1 H    0.930 --   140 N    0.852
   154   1 H    0.987 --   141 C    0.955
   155   1 H    0.993 --   142 C    0.956
   156  15 P    5.410 --   157 O    1.758   158 O    1.374   159 O    1.127
                           132 O    1.082
   157   8 O    1.968 --   156 P    1.758
   158   8 O    2.278 --   156 P    1.374   384 H    0.741
   159   8 O    2.254 --   156 P    1.127   160 C    0.931
   160   6 C    3.915 --   161 C    0.987   178 H    0.968   179 H    0.966
                           159 O    0.931
   161   6 C    3.944 --   160 C    0.987   163 C    0.964   162 O    0.962
                           180 H    0.952
   162   8 O    2.078 --   166 C    0.981   161 C    0.962
   163   6 C    3.964 --   164 O    1.002   165 C    0.992   161 C    0.964
                           181 H    0.959
   164   8 O    1.939 --   163 C    1.002   182 H    0.867
   165   6 C    3.986 --   163 C    0.992   166 C    0.982   183 H    0.974
                           184 H    0.967
   166   6 C    3.930 --   165 C    0.982   162 O    0.981   185 H    0.953
                           167 N    0.946
   167   7 N    3.594 --   168 C    1.210   177 C    1.163   166 C    0.946
                           169 N    0.109
   168   6 C    3.950 --   169 N    1.602   167 N    1.210   186 H    0.958
   169   7 N    3.002 --   168 C    1.602   170 C    1.190   167 N    0.109
   170   6 C    3.961 --   177 C    1.349   169 N    1.190   171 C    1.133
   171   6 C    3.952 --   172 O    1.566   173 N    1.136   170 C    1.133
   172   8 O    1.961 --   171 C    1.566   173 N    0.134
   173   7 N    3.511 --   174 C    1.171   171 C    1.136   187 H    0.850
                           172 O    0.134
   174   6 C    3.967 --   176 N    1.368   175 N    1.334   173 N    1.171
   175   7 N    3.380 --   174 C    1.334   189 H    0.916   188 H    0.857
                           176 N    0.106
   176   7 N    2.961 --   174 C    1.368   177 C    1.234   175 N    0.106
   177   6 C    3.956 --   170 C    1.349   176 N    1.234   167 N    1.163
   178   1 H    0.996 --   160 C    0.968
   179   1 H    0.994 --   160 C    0.966
   180   1 H    0.993 --   161 C    0.952
   181   1 H    0.999 --   163 C    0.959
   182   1 H    0.880 --   164 O    0.867
   183   1 H    0.995 --   165 C    0.974
   184   1 H    0.990 --   165 C    0.967
   185   1 H    0.992 --   166 C    0.953
   186   1 H    0.997 --   168 C    0.958
   187   1 H    0.942 --   173 N    0.850
   188   1 H    0.935 --   175 N    0.857
   189   1 H    0.937 --   175 N    0.916
   190   8 O    1.951 --   191 C    1.008   217 H    0.873
   191   6 C    3.955 --   190 O    1.008   192 C    0.976   207 H    0.968
                           206 H    0.966
   192   6 C    3.943 --   191 C    0.976   194 C    0.970   193 O    0.962
                           208 H    0.956
   193   8 O    2.083 --   197 C    0.987   192 C    0.962
   194   6 C    3.930 --   196 C    0.987   192 C    0.970   209 H    0.945
                           195 O    0.941
   195   8 O    2.257 --   218 P    1.106   194 C    0.941
   196   6 C    3.988 --   194 C    0.987   197 C    0.984   210 H    0.968
                           211 H    0.967
   197   6 C    3.936 --   193 O    0.987   196 C    0.984   212 H    0.952
                           198 N    0.941
   198   7 N    3.571 --   205 C    1.202   199 C    1.085   197 C    0.941
                           200 O    0.111
   199   6 C    3.952 --   200 O    1.523   201 N    1.251   198 N    1.085
   200   8 O    1.930 --   199 C    1.523   201 N    0.119   198 N    0.111
   201   7 N    3.065 --   202 C    1.347   199 C    1.251   200 O    0.119
                           203 N    0.105
   202   6 C    3.964 --   203 N    1.363   201 N    1.347   204 C    1.159
   203   7 N    3.424 --   202 C    1.363   214 H    0.918   213 H    0.873
                           201 N    0.105
   204   6 C    3.976 --   205 C    1.650   202 C    1.159   215 H    0.958
   205   6 C    3.953 --   204 C    1.650   198 N    1.202   216 H    0.950
   206   1 H    0.992 --   191 C    0.966
   207   1 H    0.997 --   191 C    0.968
   208   1 H    0.996 --   192 C    0.956
   209   1 H    0.998 --   194 C    0.945
   210   1 H    0.995 --   196 C    0.968
   211   1 H    0.993 --   196 C    0.967
   212   1 H    0.992 --   197 C    0.952
   213   1 H    0.941 --   203 N    0.873
   214   1 H    0.941 --   203 N    0.918
   215   1 H    0.989 --   204 C    0.958
   216   1 H    0.989 --   205 C    0.950
   217   1 H    0.893 --   190 O    0.873
   218  15 P    5.444 --   219 O    1.800   220 O    1.371   195 O    1.106
                           221 O    1.101
   219   8 O    1.999 --   218 P    1.800
   220   8 O    2.300 --   218 P    1.371   383 H    0.768
   221   8 O    2.251 --   218 P    1.101   222 C    0.945
   222   6 C    3.924 --   223 C    0.983   241 H    0.966   240 H    0.964
                           221 O    0.945
   223   6 C    3.950 --   222 C    0.983   225 C    0.973   224 O    0.968
                           242 H    0.950
   224   8 O    2.080 --   228 C    0.974   223 C    0.968
   225   6 C    3.930 --   227 C    0.991   223 C    0.973   243 H    0.959
                           226 O    0.935
   226   8 O    2.254 --   251 P    1.103   225 C    0.935
   227   6 C    3.985 --   225 C    0.991   228 C    0.984   244 H    0.961
                           245 H    0.956
   228   6 C    3.933 --   227 C    0.984   224 O    0.974   229 N    0.954
                           246 H    0.954
   229   7 N    3.589 --   230 C    1.189   239 C    1.169   228 C    0.954
                           231 N    0.113
   230   6 C    3.941 --   231 N    1.609   229 N    1.189   247 H    0.947
   231   7 N    3.017 --   230 C    1.609   232 C    1.195   229 N    0.113
   232   6 C    3.964 --   239 C    1.353   231 N    1.195   233 C    1.129
   233   6 C    3.946 --   234 O    1.574   232 C    1.129   235 N    1.128
   234   8 O    1.981 --   233 C    1.574   235 N    0.132
   235   7 N    3.513 --   236 C    1.175   233 C    1.128   248 H    0.858
                           234 O    0.132
   236   6 C    3.964 --   238 N    1.371   237 N    1.322   235 N    1.175
   237   7 N    3.376 --   236 C    1.322   250 H    0.921   249 H    0.867
                           238 N    0.105
   238   7 N    2.961 --   236 C    1.371   239 C    1.231   237 N    0.105
   239   6 C    3.960 --   232 C    1.353   238 N    1.231   229 N    1.169
   240   1 H    0.994 --   222 C    0.964
   241   1 H    0.995 --   222 C    0.966
   242   1 H    0.990 --   223 C    0.950
   243   1 H    0.994 --   225 C    0.959
   244   1 H    0.989 --   227 C    0.961
   245   1 H    0.993 --   227 C    0.956
   246   1 H    0.993 --   228 C    0.954
   247   1 H    0.994 --   230 C    0.947
   248   1 H    0.946 --   235 N    0.858
   249   1 H    0.941 --   237 N    0.867
   250   1 H    0.942 --   237 N    0.921
   251  15 P    5.435 --   252 O    1.791   253 O    1.376   226 O    1.103
                           254 O    1.099
   252   8 O    1.998 --   251 P    1.791
   253   8 O    2.294 --   251 P    1.376   382 H    0.759
   254   8 O    2.251 --   251 P    1.099   255 C    0.948
   255   6 C    3.926 --   256 C    0.985   272 H    0.967   271 H    0.966
                           254 O    0.948
   256   6 C    3.949 --   255 C    0.985   258 C    0.969   257 O    0.967
                           273 H    0.951
   257   8 O    2.076 --   261 C    0.974   256 C    0.967
   258   6 C    3.926 --   260 C    0.992   256 C    0.969   274 H    0.960
                           259 O    0.929
   259   8 O    2.257 --   283 P    1.115   258 C    0.929
   260   6 C    3.981 --   258 C    0.992   261 C    0.983   276 H    0.959
                           275 H    0.957
   261   6 C    3.932 --   260 C    0.983   257 O    0.974   262 N    0.953
                           277 H    0.952
   262   7 N    3.574 --   270 C    1.158   263 C    1.120   261 C    0.953
                           264 O    0.132
   263   6 C    3.959 --   264 O    1.601   265 N    1.155   262 N    1.120
   264   8 O    1.944 --   263 C    1.601   262 N    0.132   265 N    0.130
   265   7 N    3.518 --   263 C    1.155   266 C    1.136   278 H    0.849
                           267 O    0.138   264 O    0.130
   266   6 C    3.937 --   267 O    1.624   265 N    1.136   268 C    1.080
   267   8 O    2.019 --   266 C    1.624   265 N    0.138
   268   6 C    3.976 --   270 C    1.651   266 C    1.080   269 C    1.021
   269   6 C    3.976 --   268 C    1.021   279 H    0.979   281 H    0.963
                           280 H    0.962
   270   6 C    3.944 --   268 C    1.651   262 N    1.158   282 H    0.940
   271   1 H    0.993 --   255 C    0.966
   272   1 H    0.995 --   255 C    0.967
   273   1 H    0.991 --   256 C    0.951
   274   1 H    0.994 --   258 C    0.960
   275   1 H    0.987 --   260 C    0.957
   276   1 H    0.992 --   260 C    0.959
   277   1 H    0.995 --   261 C    0.952
   278   1 H    0.943 --   265 N    0.849
   279   1 H    0.993 --   269 C    0.979
   280   1 H    0.988 --   269 C    0.962
   281   1 H    0.992 --   269 C    0.963
   282   1 H    0.987 --   270 C    0.940
   283  15 P    5.414 --   284 O    1.768   285 O    1.373   259 O    1.115
                           286 O    1.091
   284   8 O    1.985 --   283 P    1.768
   285   8 O    2.287 --   283 P    1.373   381 H    0.753
   286   8 O    2.247 --   283 P    1.091   287 C    0.949
   287   6 C    3.928 --   288 C    0.983   304 H    0.968   305 H    0.966
                           286 O    0.949
   288   6 C    3.950 --   287 C    0.983   290 C    0.971   289 O    0.969
                           306 H    0.950
   289   8 O    2.082 --   293 C    0.974   288 C    0.969
   290   6 C    3.928 --   292 C    0.992   288 C    0.971   307 H    0.959
                           291 O    0.932
   291   8 O    2.272 --   315 P    1.137   290 C    0.932
   292   6 C    3.986 --   290 C    0.992   293 C    0.982   308 H    0.964
                           309 H    0.963
   293   6 C    3.935 --   292 C    0.982   289 O    0.974   294 N    0.957
                           310 H    0.954
   294   7 N    3.601 --   295 C    1.210   303 C    1.164   293 C    0.957
                           296 N    0.112
   295   6 C    3.947 --   296 N    1.599   294 N    1.210   311 H    0.944
   296   7 N    3.001 --   295 C    1.599   297 C    1.180   294 N    0.112
   297   6 C    3.969 --   303 C    1.335   298 C    1.190   296 N    1.180
   298   6 C    3.974 --   299 N    1.347   300 N    1.299   297 C    1.190
   299   7 N    3.425 --   298 C    1.347   313 H    0.927   312 H    0.860
   300   7 N    3.086 --   301 C    1.399   298 C    1.299
   301   6 C    3.972 --   302 N    1.473   300 N    1.399   314 H    0.958
   302   7 N    3.007 --   301 C    1.473   303 C    1.251
   303   6 C    3.958 --   297 C    1.335   302 N    1.251   294 N    1.164
   304   1 H    0.994 --   287 C    0.968
   305   1 H    0.995 --   287 C    0.966
   306   1 H    0.991 --   288 C    0.950
   307   1 H    0.994 --   290 C    0.959
   308   1 H    0.990 --   292 C    0.964
   309   1 H    0.993 --   292 C    0.963
   310   1 H    0.995 --   293 C    0.954
   311   1 H    0.993 --   295 C    0.944
   312   1 H    0.935 --   299 N    0.860
   313   1 H    0.946 --   299 N    0.927
   314   1 H    0.999 --   301 C    0.958
   315  15 P    5.447 --   332 O    1.764   333 O    1.397   291 O    1.137
                           317 O    1.089
   316   6 C    3.928 --   318 C    0.988   337 H    0.964   336 H    0.963
                           317 O    0.954
   317   8 O    2.248 --   315 P    1.089   316 C    0.954
   318   6 C    3.941 --   316 C    0.988   319 O    0.963   320 C    0.961
                           338 H    0.951
   319   8 O    2.076 --   323 C    0.982   318 C    0.963
   320   6 C    3.931 --   318 C    0.961   321 O    0.957   339 H    0.952
                           322 C    0.946
   321   8 O    2.266 --   345 P    1.109   320 C    0.957
   322   6 C    3.849 --   320 C    0.946   335 F    0.944   334 F    0.942
                           323 C    0.938
   323   6 C    3.948 --   319 O    0.982   324 N    0.971   340 H    0.947
                           322 C    0.938
   324   7 N    3.557 --   331 C    1.188   325 C    1.067   323 C    0.971
                           326 O    0.108
   325   6 C    3.947 --   326 O    1.539   327 N    1.247   324 N    1.067
   326   8 O    1.942 --   325 C    1.539   327 N    0.120   324 N    0.108
   327   7 N    3.067 --   328 C    1.350   325 C    1.247   326 O    0.120
                           329 N    0.108
   328   6 C    3.971 --   329 N    1.375   327 N    1.350   330 C    1.153
   329   7 N    3.422 --   328 C    1.375   341 H    0.912   342 H    0.853
                           327 N    0.108
   330   6 C    3.970 --   331 C    1.655   328 C    1.153   343 H    0.953
   331   6 C    3.945 --   330 C    1.655   324 N    1.188   344 H    0.952
   332   8 O    1.978 --   315 P    1.764
   333   8 O    2.305 --   315 P    1.397   380 H    0.747
   334   9 F    1.055 --   322 C    0.942
   335   9 F    1.051 --   322 C    0.944
   336   1 H    0.990 --   316 C    0.963
   337   1 H    0.992 --   316 C    0.964
   338   1 H    0.992 --   318 C    0.951
   339   1 H    0.988 --   320 C    0.952
   340   1 H    0.993 --   323 C    0.947
   341   1 H    0.935 --   329 N    0.912
   342   1 H    0.933 --   329 N    0.853
   343   1 H    0.985 --   330 C    0.953
   344   1 H    0.991 --   331 C    0.952
   345  15 P    5.427 --   346 O    1.746   347 O    1.386   348 O    1.121
                           321 O    1.109
   346   8 O    1.964 --   345 P    1.746
   347   8 O    2.290 --   345 P    1.386   379 H    0.744
   348   8 O    2.260 --   345 P    1.121   349 C    0.938
   349   6 C    3.921 --   350 C    0.982   367 H    0.969   368 H    0.966
                           348 O    0.938
   350   6 C    3.945 --   349 C    0.982   351 O    0.969   352 C    0.966
                           369 H    0.951
   351   8 O    2.076 --   355 C    0.969   350 C    0.969
   352   6 C    3.963 --   353 O    1.002   354 C    0.987   350 C    0.966
                           370 H    0.961
   353   8 O    1.947 --   352 C    1.002   371 H    0.868
   354   6 C    3.987 --   352 C    0.987   355 C    0.984   373 H    0.970
                           372 H    0.969
   355   6 C    3.930 --   354 C    0.984   351 O    0.969   356 N    0.954
                           374 H    0.954
   356   7 N    3.593 --   357 C    1.198   366 C    1.169   355 C    0.954
                           358 N    0.108
   357   6 C    3.948 --   358 N    1.610   356 N    1.198   375 H    0.956
   358   7 N    3.010 --   357 C    1.610   359 C    1.193   356 N    0.108
   359   6 C    3.962 --   366 C    1.344   358 N    1.193   360 C    1.140
   360   6 C    3.952 --   361 O    1.555   359 C    1.140   362 N    1.137
   361   8 O    1.954 --   360 C    1.555   362 N    0.133
   362   7 N    3.513 --   363 C    1.175   360 C    1.137   376 H    0.845
                           361 O    0.133
   363   6 C    3.967 --   365 N    1.369   364 N    1.328   362 N    1.175
   364   7 N    3.377 --   363 C    1.328   378 H    0.916   377 H    0.865
                           365 N    0.106
   365   7 N    2.959 --   363 C    1.369   366 C    1.233   364 N    0.106
   366   6 C    3.957 --   359 C    1.344   365 N    1.233   356 N    1.169
   367   1 H    0.997 --   349 C    0.969
   368   1 H    0.995 --   349 C    0.966
   369   1 H    0.992 --   350 C    0.951
   370   1 H    0.995 --   352 C    0.961
   371   1 H    0.883 --   353 O    0.868
   372   1 H    0.995 --   354 C    0.969
   373   1 H    0.991 --   354 C    0.970
   374   1 H    0.994 --   355 C    0.954
   375   1 H    0.997 --   357 C    0.956
   376   1 H    0.942 --   362 N    0.845
   377   1 H    0.936 --   364 N    0.865
   378   1 H    0.936 --   364 N    0.916
   379   1 H    0.778 --   347 O    0.744
   380   1 H    0.782 --   333 O    0.747
   381   1 H    0.793 --   285 O    0.753
   382   1 H    0.802 --   253 O    0.759
   383   1 H    0.815 --   220 O    0.768
   384   1 H    0.776 --   158 O    0.741
   385   1 H    0.778 --   144 O    0.743
   386   1 H    0.782 --    96 O    0.748
   387   1 H    0.784 --    64 O    0.750
   388   1 H    0.811 --    31 O    0.756
 ---------------------------------------------------------------------------

Topologies differ in total number of bonds
Writing topology from bond orders to xtbtopo.mol

molecular dipole:
                 x           y           z       tot (Debye)
 q only:       -2.875      -9.496       1.775
   full:       -0.982      -7.953       1.320      20.642
molecular quadrupole (traceless):
                xx          xy          yy          xz          yz          zz
 q only:      132.033    -760.134    -773.210      53.185    -688.893     641.177
  q+dip:      243.923    -567.782    -704.478     162.534    -625.839     460.555
   full:      233.093    -566.769    -715.772     163.034    -618.157     482.678


           -------------------------------------------------
          | TOTAL ENERGY             -779.649505937036 Eh   |
          | GRADIENT NORM               0.479778957892 Eh/α |
          | HOMO-LUMO GAP               2.281631626786 eV   |
           -------------------------------------------------

------------------------------------------------------------------------
 * finished run on 2023/03/09 at 13:52:16.304     
------------------------------------------------------------------------
 total:
 * wall-time:     0 d,  0 h,  0 min,  2.688 sec
 *  cpu-time:     0 d,  0 h,  0 min, 26.003 sec
 * ratio c/w:     9.676 speedup
 SCF:
 * wall-time:     0 d,  0 h,  0 min,  2.377 sec
 *  cpu-time:     0 d,  0 h,  0 min, 23.302 sec
 * ratio c/w:     9.802 speedup

