      -----------------------------------------------------------      
     |                   =====================                   |     
     |                           x T B                           |     
     |                   =====================                   |     
     |                         S. Grimme                         |     
     |          Mulliken Center for Theoretical Chemistry        |     
     |                    University of Bonn                     |     
      -----------------------------------------------------------      

   * xtb version 6.5.1 (579679a) compiled by 'ehlert@majestix' on 2022-07-11

   xtb is free software: you can redistribute it and/or modify it under
   the terms of the GNU Lesser General Public License as published by
   the Free Software Foundation, either version 3 of the License, or
   (at your option) any later version.
   
   xtb is distributed in the hope that it will be useful,
   but WITHOUT ANY WARRANTY; without even the implied warranty of
   MERCHANTABILITY or FITNESS FOR A PARTICULAR PURPOSE.  See the
   GNU Lesser General Public License for more details.
   
   Cite this work as:
   * C. Bannwarth, E. Caldeweyher, S. Ehlert, A. Hansen, P. Pracht,
     J. Seibert, S. Spicher, S. Grimme, WIREs Comput. Mol. Sci., 2020, 11,
     e01493. DOI: 10.1002/wcms.1493
   
   for GFN2-xTB:
   * C. Bannwarth, S. Ehlert and S. Grimme., J. Chem. Theory Comput., 2019,
     15, 1652-1671. DOI: 10.1021/acs.jctc.8b01176
   for GFN1-xTB:
   * S. Grimme, C. Bannwarth, P. Shushkov, J. Chem. Theory Comput., 2017,
     13, 1989-2009. DOI: 10.1021/acs.jctc.7b00118
   for GFN0-xTB:
   * P. Pracht, E. Caldeweyher, S. Ehlert, S. Grimme, ChemRxiv, 2019, preprint.
     DOI: 10.26434/chemrxiv.8326202.v1
   for GFN-FF:
   * S. Spicher and S. Grimme, Angew. Chem. Int. Ed., 2020, 59, 15665-15673.
     DOI: 10.1002/anie.202004239
   
   for ALPB and GBSA implicit solvation:
   * S. Ehlert, M. Stahn, S. Spicher, S. Grimme, J. Chem. Theory Comput.,
     2021, 17, 4250-4261. DOI: 10.1021/acs.jctc.1c00471
   
   for DFT-D4:
   * E. Caldeweyher, C. Bannwarth and S. Grimme, J. Chem. Phys., 2017,
     147, 034112. DOI: 10.1063/1.4993215
   * E. Caldeweyher, S. Ehlert, A. Hansen, H. Neugebauer, S. Spicher,
     C. Bannwarth and S. Grimme, J. Chem. Phys., 2019, 150, 154122.
     DOI: 10.1063/1.5090222
   * E. Caldeweyher, J.-M. Mewes, S. Ehlert and S. Grimme, Phys. Chem. Chem. Phys.
     2020, 22, 8499-8512. DOI: 10.1039/D0CP00502A
   
   for sTDA-xTB:
   * S. Grimme and C. Bannwarth, J. Chem. Phys., 2016, 145, 054103.
     DOI: 10.1063/1.4959605
   
   in the mass-spec context:
   * V. Asgeirsson, C. Bauer and S. Grimme, Chem. Sci., 2017, 8, 4879.
     DOI: 10.1039/c7sc00601b
   * J. Koopman and S. Grimme, ACS Omega 2019, 4, 12, 15120-15133.
     DOI: 10.1021/acsomega.9b02011
   
   for metadynamics refer to:
   * S. Grimme, J. Chem. Theory Comput., 2019, 155, 2847-2862
     DOI: 10.1021/acs.jctc.9b00143
   
   for SPH calculations refer to:
   * S. Spicher and S. Grimme, J. Chem. Theory Comput., 2021, 17, 1701-1714
     DOI: 10.1021/acs.jctc.0c01306
   
   with help from (in alphabetical order)
   P. Atkinson, C. Bannwarth, F. Bohle, G. Brandenburg, E. Caldeweyher
   M. Checinski, S. Dohm, S. Ehlert, S. Ehrlich, I. Gerasimov, C. Hölzer
   A. Katbashev, J. Koopman, C. Lavigne, S. Lehtola, F. März, M. Müller,
   F. Musil, H. Neugebauer, J. Pisarek, C. Plett, P. Pracht, F. Pultar,
   J. Seibert, P. Shushkov, S. Spicher, M. Stahn, M. Steiner, T. Strunk,
   J. Stückrath, T. Rose, and J. Unsleber
   
 * started run on 2023/03/09 at 13:52:10.177     

           -------------------------------------------------
          |                Calculation Setup                |
           -------------------------------------------------

          program call               : /N/u/schandy/BigRed3/bin/xtb-6.5.1/bin/xtb 7nbk.xyz --alpb water
          hostname                   : nid00005
          coordinate file            : 7nbk.xyz
          omp threads                :                    10

   ID    Z sym.   atoms
    1    8 O      1, 4, 6, 11, 30-32, 35, 37, 45, 63-65, 68, 70, 75, 78,
                  95-97, 100, 102, 128, 130, 132, 137, 143, 144, 157-159,
                  162, 164, 172, 190, 193, 195, 200, 219-221, 224, 226, 234,
                  252-254, 257, 259, 264, 267, 284-286, 289, 291, 317, 319,
                  321, 326, 332, 333, 346-348, 351, 353, 361
    2    6 C      2, 3, 5, 7, 8, 10, 13, 15, 16, 33, 34, 36, 38, 39, 41, 43,
                  44, 47, 50, 66, 67, 69, 71, 72, 74, 77, 79-81, 98, 99, 101,
                  103, 104, 106, 108, 109, 112, 114, 127, 129, 131, 133, 134,
                  136, 139, 141, 142, 160, 161, 163, 165, 166, 168, 170, 171,
                  174, 177, 191, 192, 194, 196, 197, 199, 202, 204, 205, 222,
                  223, 225, 227, 228, 230, 232, 233, 236, 239, 255, 256, 258,
                  260, 261, 263, 266, 268-270, 287, 288, 290, 292, 293, 295,
                  297, 298, 301, 303, 316, 318, 320, 322, 323, 325, 328, 330,
                  331, 349, 350, 352, 354, 355, 357, 359, 360, 363, 366
    3    7 N      9, 12, 14, 40, 42, 46, 48, 49, 73, 76, 105, 107, 110, 111,
                  113, 135, 138, 140, 167, 169, 173, 175, 176, 198, 201, 203,
                  229, 231, 235, 237, 238, 262, 265, 294, 296, 299, 300, 302,
                  324, 327, 329, 356, 358, 362, 364, 365
    4    1 H      17-28, 51-61, 82-93, 115-125, 147-155, 178-189, 206-217,
                  240-250, 271-282, 304-314, 336-344, 367-388
    5   15 P      29, 62, 94, 126, 156, 218, 251, 283, 315, 345
    6    9 F      145, 146, 334, 335

molecular fragmentation (1/2 indicates fragments):
111111111111111111111111111111111111111111111111111111111111111111111111
111111111111111111111111111111111111111111111111111111111111111111111111
111111111111111111111111111111111111111111111222222222222222222222222222
222222222222222222222222222222222222222222222222222222222222222222222222
222222222222222222222222222222222222222222222222222222222222222222222222
2222222222222222222222211111
# atoms in fragment 1/2:   194   194
 fragment masses (1/2) :     1828.19     1828.19
CMA distance (Bohr)    :  11.599
constraining FC (au)   :  0.0500

           -------------------------------------------------
          |                 G F N 2 - x T B                 |
           -------------------------------------------------

        Reference                      10.1021/acs.jctc.8b01176
      * Hamiltonian:
        H0-scaling (s, p, d)           1.850000    2.230000    2.230000
        zeta-weighting                 0.500000
      * Dispersion:
        s8                             2.700000
        a1                             0.520000
        a2                             5.000000
        s9                             5.000000
      * Repulsion:
        kExp                           1.500000    1.000000
        rExp                           1.000000
      * Coulomb:
        alpha                          2.000000
        third order                    shell-resolved
        anisotropic                    true
        a3                             3.000000
        a5                             4.000000
        cn-shift                       1.200000
        cn-exp                         4.000000
        max-rad                        5.000000

      * Solvation model:               ALPB
        Solvent                        water
        Parameter file                 internal GFN2-xTB/ALPB
        Dielectric constant                8.0200E+01
        Reference state                gsolv [1 M gas/solution]
        Free energy shift                  1.0808E-03 Eh       6.7819E-01 kcal/mol
        Temperature                        2.9815E+02 K
        Density                            1.0000E+00 kg/L
        Solvent mass                       1.8000E+01 g/mol
        Interaction kernel             P16
        Born radius scaling (c1)           1.4744E+00
        Born radii integrator          GBOBC
        Born offset                        0.0000E+00 a0       0.0000E+00 AA
        H-bond correction              true
        Ion screening                  false
        Surface tension                    1.0000E-05 Eh       1.5569E+01 dyn/cm
        Grid points                               230 per atom

          ...................................................
          :                      SETUP                      :
          :.................................................:
          :  # basis functions                1180          :
          :  # atomic orbitals                1170          :
          :  # shells                          642          :
          :  # electrons                      1324          :
          :  max. iterations                   250          :
          :  Hamiltonian                  GFN2-xTB          :
          :  restarted?                      false          :
          :  GBSA solvation                   true          :
          :  PC potential                    false          :
          :  electronic temp.          300.0000000     K    :
          :  accuracy                    1.0000000          :
          :  -> integral cutoff          0.2500000E+02      :
          :  -> integral neglect         0.1000000E-07      :
          :  -> SCF convergence          0.1000000E-05 Eh   :
          :  -> wf. convergence          0.1000000E-03 e    :
          :  Broyden damping             0.4000000          :
          ...................................................

 iter      E             dE          RMSdq      gap      omega  full diag
   1   -785.1393206 -0.785139E+03  0.586E+00    2.83       0.0  T
   2   -786.8617899 -0.172247E+01  0.339E+00    2.35       1.0  T
   3   -786.9696784 -0.107888E+00  0.144E+00    2.63       1.0  T
   4   -787.1145166 -0.144838E+00  0.619E-01    2.31       1.0  T
   5   -787.1660520 -0.515353E-01  0.293E-01    2.40       1.0  T
   6   -787.1733314 -0.727946E-02  0.128E-01    2.38       1.0  T
   7   -787.1749035 -0.157208E-02  0.652E-02    2.38       1.0  T
   8   -787.1750634 -0.159870E-03  0.383E-02    2.39       1.0  T
   9   -787.1752091 -0.145720E-03  0.169E-02    2.39       1.0  T
  10   -787.1752460 -0.369393E-04  0.725E-03    2.39       1.0  T
  11   -787.1752496 -0.356996E-05  0.394E-03    2.39       1.3  T
  12   -787.1752514 -0.183270E-05  0.187E-03    2.39       2.7  T
  13   -787.1752518 -0.391838E-06  0.102E-03    2.39       5.0  T
  14   -787.1752519 -0.117553E-06  0.574E-04    2.39       8.9  T
  15   -787.1752520 -0.397162E-07  0.325E-04    2.39      15.6  T

   *** convergence criteria satisfied after 15 iterations ***

         #    Occupation            Energy/Eh            Energy/eV
      -------------------------------------------------------------
         1        2.0000           -0.8868133             -24.1314
       ...           ...                  ...                  ...
       656        2.0000           -0.3921581             -10.6712
       657        2.0000           -0.3859806             -10.5031
       658        2.0000           -0.3844205             -10.4606
       659        2.0000           -0.3839200             -10.4470
       660        2.0000           -0.3806257             -10.3574
       661        2.0000           -0.3742922             -10.1850
       662        2.0000           -0.3721454             -10.1266 (HOMO)
       663                         -0.2842584              -7.7351 (LUMO)
       664                         -0.2818082              -7.6684
       665                         -0.2816788              -7.6649
       666                         -0.2814650              -7.6591
       667                         -0.2720612              -7.4032
       ...                                ...                  ...
      1170                          1.3286943              36.1556
      -------------------------------------------------------------
                  HL-Gap            0.0878871 Eh            2.3915 eV
             Fermi-level           -0.3282019 Eh           -8.9308 eV

 SCC (total)                   0 d,  0 h,  0 min,  3.129 sec
 SCC setup                      ...        0 min,  0.024 sec (  0.758%)
 Dispersion                     ...        0 min,  0.049 sec (  1.563%)
 classical contributions        ...        0 min,  0.002 sec (  0.052%)
 integral evaluation            ...        0 min,  0.158 sec (  5.050%)
 iterations                     ...        0 min,  2.266 sec ( 72.418%)
 molecular gradient             ...        0 min,  0.615 sec ( 19.648%)
 printout                       ...        0 min,  0.016 sec (  0.508%)

         :::::::::::::::::::::::::::::::::::::::::::::::::::::
         ::                     SUMMARY                     ::
         :::::::::::::::::::::::::::::::::::::::::::::::::::::
         :: total energy            -779.731974498594 Eh    ::
         :: total w/o Gsasa/hb      -779.608418765972 Eh    ::
         :: gradient norm              0.457984712955 Eh/a0 ::
         :: HOMO-LUMO gap              2.391529212688 eV    ::
         ::.................................................::
         :: SCC energy              -787.175251981259 Eh    ::
         :: -> isotropic ES            2.750650600960 Eh    ::
         :: -> anisotropic ES         -0.218638036783 Eh    ::
         :: -> anisotropic XC          0.113118474270 Eh    ::
         :: -> dispersion             -0.660533327426 Eh    ::
         :: -> Gsolv                  -0.544855343277 Eh    ::
         ::    -> Gelec               -0.421299610655 Eh    ::
         ::    -> Gsasa                0.029603489848 Eh    ::
         ::    -> Ghb                 -0.154239982169 Eh    ::
         ::    -> Gshift               0.001080759698 Eh    ::
         :: repulsion energy           7.388378583263 Eh    ::
         :: add. restraining           0.000000000000 Eh    ::
         :: total charge              -0.000000000000 e     ::
         :::::::::::::::::::::::::::::::::::::::::::::::::::::

           -------------------------------------------------
          |                Property Printout                |
           -------------------------------------------------

    * Orbital Energies and Occupations

         #    Occupation            Energy/Eh            Energy/eV
      -------------------------------------------------------------
         1        2.0000           -0.8868133             -24.1314
       ...           ...                  ...                  ...
       650        2.0000           -0.3983088             -10.8385
       651        2.0000           -0.3982507             -10.8370
       652        2.0000           -0.3948762             -10.7451
       653        2.0000           -0.3943021             -10.7295
       654        2.0000           -0.3942507             -10.7281
       655        2.0000           -0.3929739             -10.6934
       656        2.0000           -0.3921581             -10.6712
       657        2.0000           -0.3859806             -10.5031
       658        2.0000           -0.3844205             -10.4606
       659        2.0000           -0.3839200             -10.4470
       660        2.0000           -0.3806257             -10.3574
       661        2.0000           -0.3742922             -10.1850
       662        2.0000           -0.3721454             -10.1266 (HOMO)
       663                         -0.2842584              -7.7351 (LUMO)
       664                         -0.2818082              -7.6684
       665                         -0.2816788              -7.6649
       666                         -0.2814650              -7.6591
       667                         -0.2720612              -7.4032
       668                         -0.2702448              -7.3537
       669                         -0.2698572              -7.3432
       670                         -0.2623990              -7.1402
       671                         -0.2554357              -6.9508
       672                         -0.2509595              -6.8290
       673                         -0.2492841              -6.7834
       ...                                ...                  ...
      1170                          1.3286943              36.1556
      -------------------------------------------------------------
                  HL-Gap            0.0878871 Eh            2.3915 eV
             Fermi-level           -0.3282019 Eh           -8.9308 eV

 * generalized Born model for continuum solvation

     #   Z     Born rad/Å   SASA/Å²    H-bond
     1   8 O        2.026    17.989    -0.002
     2   6 C        2.324     1.822    -0.000
     3   6 C        2.524     0.223    -0.000
     4   8 O        2.341     9.311    -0.001
     5   6 C        2.641     0.000     0.000
     6   8 O        2.346     4.447    -0.000
     7   6 C        2.604     0.240    -0.000
     8   6 C        2.655     0.607    -0.000
     9   7 N        2.645     0.872    -0.000
    10   6 C        2.652     4.521    -0.000
    11   8 O        2.170    12.617    -0.001
    12   7 N        2.509     3.467    -0.000
    13   6 C        2.692     3.949    -0.000
    14   7 N        2.245     7.306    -0.001
    15   6 C        2.620     4.877    -0.000
    16   6 C        2.662     1.613    -0.000
    17   1 H        1.819    21.629    -0.036
    18   1 H        1.840    17.962    -0.030
    19   1 H        1.929    16.547    -0.028
    20   1 H        2.039     2.020    -0.003
    21   1 H        2.092     0.204    -0.000
    22   1 H        1.978     7.501    -0.013
    23   1 H        1.959    13.305    -0.022
    24   1 H        1.962     2.534    -0.004
    25   1 H        1.920     8.100    -0.014
    26   1 H        1.945    17.506    -0.029
    27   1 H        2.007     4.159    -0.007
    28   1 H        1.794     8.889    -0.015
    29  15 P        2.777     9.335    -0.002
    30   8 O        2.068    27.994    -0.003
    31   8 O        2.099    13.217    -0.001
    32   8 O        2.361     0.259    -0.000
    33   6 C        2.461     0.434    -0.000
    34   6 C        2.558     0.152    -0.000
    35   8 O        2.399     7.562    -0.001
    36   6 C        2.615     0.286    -0.000
    37   8 O        2.348     4.348    -0.000
    38   6 C        2.629     0.182    -0.000
    39   6 C        2.746     0.271    -0.000
    40   7 N        2.843     0.022    -0.000
    41   6 C        2.717     0.137    -0.000
    42   7 N        2.482     9.388    -0.001
    43   6 C        3.062     0.023    -0.000
    44   6 C        2.747     0.041    -0.000
    45   8 O        2.217     7.516    -0.001
    46   7 N        2.642     0.000     0.000
    47   6 C        2.827     0.000    -0.000
    48   7 N        2.318     0.328    -0.000
    49   7 N        2.632     2.358    -0.000
    50   6 C        3.187     0.259    -0.000
    51   1 H        1.906     9.543    -0.016
    52   1 H        1.884    13.723    -0.023
    53   1 H        1.927    17.298    -0.029
    54   1 H        1.964    11.870    -0.020
    55   1 H        2.030     5.360    -0.009
    56   1 H        2.039     0.074    -0.000
    57   1 H        2.069     1.876    -0.003
    58   1 H        2.015     0.367    -0.001
    59   1 H        2.322     0.000     0.000
    60   1 H        1.998     1.590    -0.003
    61   1 H        1.962    10.046    -0.017
    62  15 P        2.775     6.591    -0.001
    63   8 O        2.069    27.239    -0.003
    64   8 O        2.098     6.420    -0.001
    65   8 O        2.337     0.057    -0.000
    66   6 C        2.461     0.398    -0.000
    67   6 C        2.573     0.197    -0.000
    68   8 O        2.440     1.988    -0.000
    69   6 C        2.630     0.308    -0.000
    70   8 O        2.367     4.018    -0.000
    71   6 C        2.623     0.622    -0.000
    72   6 C        2.782     0.007    -0.000
    73   7 N        2.767     0.000    -0.000
    74   6 C        2.797     0.000     0.000
    75   8 O        2.262     2.353    -0.000
    76   7 N        2.596     0.000     0.000
    77   6 C        2.730     0.000    -0.000
    78   8 O        2.214     7.812    -0.001
    79   6 C        2.789     0.505    -0.000
    80   6 C        2.445     2.716    -0.000
    81   6 C        2.819     1.659    -0.000
    82   1 H        1.901    10.903    -0.018
    83   1 H        1.893    12.996    -0.022
    84   1 H        1.936    17.359    -0.029
    85   1 H        1.971    11.111    -0.019
    86   1 H        2.021     7.905    -0.013
    87   1 H        2.027     3.588    -0.006
    88   1 H        2.078     0.920    -0.002
    89   1 H        2.329     0.000     0.000
    90   1 H        1.900    11.339    -0.019
    91   1 H        1.878    17.581    -0.030
    92   1 H        1.944     6.624    -0.011
    93   1 H        2.081     1.082    -0.002
    94  15 P        2.785     5.893    -0.001
    95   8 O        2.076    26.040    -0.003
    96   8 O        2.101     7.179    -0.001
    97   8 O        2.349     0.012    -0.000
    98   6 C        2.472     0.370    -0.000
    99   6 C        2.574     0.182    -0.000
   100   8 O        2.421     6.291    -0.001
   101   6 C        2.634     0.250    -0.000
   102   8 O        2.366     4.429    -0.000
   103   6 C        2.622     0.563    -0.000
   104   6 C        2.769     0.069    -0.000
   105   7 N        2.887     0.000     0.000
   106   6 C        2.758     1.299    -0.000
   107   7 N        2.555     5.714    -0.000
   108   6 C        3.244     0.000    -0.000
   109   6 C        2.948     0.000     0.000
   110   7 N        2.319     0.749    -0.000
   111   7 N        2.706     0.000     0.000
   112   6 C        2.808     0.047    -0.000
   113   7 N        2.608     2.742    -0.000
   114   6 C        3.285     0.000     0.000
   115   1 H        1.902    11.113    -0.019
   116   1 H        1.908    12.064    -0.020
   117   1 H        1.939    17.372    -0.029
   118   1 H        1.979     8.797    -0.015
   119   1 H        2.028     7.576    -0.013
   120   1 H        2.010     3.221    -0.005
   121   1 H        2.064     3.841    -0.006
   122   1 H        2.042     1.384    -0.002
   123   1 H        1.997     1.481    -0.002
   124   1 H        1.956     8.979    -0.015
   125   1 H        2.066     4.971    -0.008
   126  15 P        2.771     7.727    -0.002
   127   6 C        2.455     0.408    -0.000
   128   8 O        2.317     1.361    -0.000
   129   6 C        2.592     0.141    -0.000
   130   8 O        2.471     1.110    -0.000
   131   6 C        2.678     0.013    -0.000
   132   8 O        2.349     4.396    -0.000
   133   6 C        2.699     0.000    -0.000
   134   6 C        2.802     0.010    -0.000
   135   7 N        2.795     0.000     0.000
   136   6 C        2.802     0.000     0.000
   137   8 O        2.261     3.947    -0.000
   138   7 N        2.636     0.000     0.000
   139   6 C        2.790     0.701    -0.000
   140   7 N        2.281     2.102    -0.000
   141   6 C        2.711     4.367    -0.000
   142   6 C        2.761     1.486    -0.000
   143   8 O        2.073    26.723    -0.003
   144   8 O        2.085    10.490    -0.001
   145   9 F        2.041     4.354    -0.001
   146   9 F        2.051     6.696    -0.002
   147   1 H        1.885    14.417    -0.024
   148   1 H        1.909    11.908    -0.020
   149   1 H        1.977    14.736    -0.025
   150   1 H        2.036     4.555    -0.008
   151   1 H        2.045     8.080    -0.014
   152   1 H        1.918    15.824    -0.027
   153   1 H        2.004     0.635    -0.001
   154   1 H        1.988    14.757    -0.025
   155   1 H        2.045     4.671    -0.008
   156  15 P        2.774     6.971    -0.001
   157   8 O        2.072    26.005    -0.003
   158   8 O        2.093     9.190    -0.001
   159   8 O        2.314     0.506    -0.000
   160   6 C        2.432     0.386    -0.000
   161   6 C        2.527     0.124    -0.000
   162   8 O        2.355     7.870    -0.001
   163   6 C        2.489     0.423    -0.000
   164   8 O        2.045    16.827    -0.002
   165   6 C        2.504     1.144    -0.000
   166   6 C        2.644     0.662    -0.000
   167   7 N        2.746     0.224    -0.000
   168   6 C        2.673     2.980    -0.000
   169   7 N        2.443    12.853    -0.001
   170   6 C        2.926     3.257    -0.000
   171   6 C        2.657     4.291    -0.000
   172   8 O        2.181    12.268    -0.001
   173   7 N        2.543     2.063    -0.000
   174   6 C        2.685     3.909    -0.000
   175   7 N        2.232     5.609    -0.000
   176   7 N        2.491     8.201    -0.001
   177   6 C        3.004     2.997    -0.000
   178   1 H        1.887    13.874    -0.023
   179   1 H        1.874    11.708    -0.020
   180   1 H        1.926    16.168    -0.027
   181   1 H        1.957     8.452    -0.014
   182   1 H        1.740    19.659    -0.033
   183   1 H        1.938    17.000    -0.029
   184   1 H        1.912    17.301    -0.029
   185   1 H        1.971    14.258    -0.024
   186   1 H        1.996     4.695    -0.008
   187   1 H        2.252     0.427    -0.001
   188   1 H        1.946     2.654    -0.004
   189   1 H        1.892    22.032    -0.037
   190   8 O        2.020    15.405    -0.002
   191   6 C        2.322     1.637    -0.000
   192   6 C        2.525     0.144    -0.000
   193   8 O        2.336    10.374    -0.001
   194   6 C        2.643     0.000     0.000
   195   8 O        2.348     4.059    -0.000
   196   6 C        2.589     0.231    -0.000
   197   6 C        2.650     0.737    -0.000
   198   7 N        2.635     0.841    -0.000
   199   6 C        2.671     4.103    -0.000
   200   8 O        2.193     9.348    -0.001
   201   7 N        2.521     2.426    -0.000
   202   6 C        2.670     3.315    -0.000
   203   7 N        2.225     7.038    -0.000
   204   6 C        2.583     6.554    -0.001
   205   6 C        2.624     4.838    -0.000
   206   1 H        1.820    21.587    -0.036
   207   1 H        1.834    17.955    -0.030
   208   1 H        1.937    15.698    -0.026
   209   1 H        2.048     0.239    -0.000
   210   1 H        2.065     0.170    -0.000
   211   1 H        1.964     8.860    -0.015
   212   1 H        1.954    14.432    -0.024
   213   1 H        1.960     1.257    -0.002
   214   1 H        1.880    16.304    -0.027
   215   1 H        1.925    20.442    -0.034
   216   1 H        1.982     4.405    -0.007
   217   1 H        1.759    11.924    -0.020
   218  15 P        2.776     9.288    -0.002
   219   8 O        2.069    27.794    -0.003
   220   8 O        2.096    13.872    -0.002
   221   8 O        2.360     0.081    -0.000
   222   6 C        2.463     0.437    -0.000
   223   6 C        2.556     0.224    -0.000
   224   8 O        2.389     8.212    -0.001
   225   6 C        2.624     0.267    -0.000
   226   8 O        2.351     4.167    -0.000
   227   6 C        2.637     0.029    -0.000
   228   6 C        2.737     0.341    -0.000
   229   7 N        2.835     0.073    -0.000
   230   6 C        2.720     0.164    -0.000
   231   7 N        2.494     8.394    -0.001
   232   6 C        3.060     0.032    -0.000
   233   6 C        2.751     0.029    -0.000
   234   8 O        2.233     5.599    -0.001
   235   7 N        2.641     0.000     0.000
   236   6 C        2.798     0.015    -0.000
   237   7 N        2.284     1.695    -0.000
   238   7 N        2.597     3.763    -0.000
   239   6 C        3.160     0.437    -0.000
   240   1 H        1.904     9.285    -0.016
   241   1 H        1.890    13.269    -0.022
   242   1 H        1.926    17.604    -0.030
   243   1 H        1.978    10.225    -0.017
   244   1 H        2.040     4.324    -0.007
   245   1 H        2.055     0.000     0.000
   246   1 H        2.049     3.369    -0.006
   247   1 H        2.015     0.928    -0.002
   248   1 H        2.328     0.000     0.000
   249   1 H        1.977     2.676    -0.004
   250   1 H        1.930    15.000    -0.025
   251  15 P        2.777     9.373    -0.002
   252   8 O        2.070    27.370    -0.003
   253   8 O        2.098    13.079    -0.001
   254   8 O        2.339     0.035    -0.000
   255   6 C        2.460     0.383    -0.000
   256   6 C        2.565     0.176    -0.000
   257   8 O        2.420     3.686    -0.000
   258   6 C        2.627     0.287    -0.000
   259   8 O        2.365     3.212    -0.000
   260   6 C        2.622     0.515    -0.000
   261   6 C        2.765     0.027    -0.000
   262   7 N        2.746     0.000     0.000
   263   6 C        2.774     0.000     0.000
   264   8 O        2.244     4.163    -0.000
   265   7 N        2.586     0.000     0.000
   266   6 C        2.733     0.001    -0.000
   267   8 O        2.223     6.801    -0.001
   268   6 C        2.780     0.388    -0.000
   269   6 C        2.441     2.680    -0.000
   270   6 C        2.801     1.762    -0.000
   271   1 H        1.897    11.564    -0.019
   272   1 H        1.895    12.914    -0.022
   273   1 H        1.933    17.190    -0.029
   274   1 H        1.972    11.223    -0.019
   275   1 H        2.020     7.358    -0.012
   276   1 H        2.029     2.559    -0.004
   277   1 H        2.064     1.989    -0.003
   278   1 H        2.329     0.000     0.000
   279   1 H        1.900     8.704    -0.015
   280   1 H        1.876    18.241    -0.031
   281   1 H        1.938     7.123    -0.012
   282   1 H        2.072     0.749    -0.001
   283  15 P        2.783     8.338    -0.002
   284   8 O        2.075    26.868    -0.003
   285   8 O        2.102    11.204    -0.001
   286   8 O        2.346     0.042    -0.000
   287   6 C        2.467     0.336    -0.000
   288   6 C        2.566     0.181    -0.000
   289   8 O        2.410     7.527    -0.001
   290   6 C        2.629     0.203    -0.000
   291   8 O        2.358     3.971    -0.000
   292   6 C        2.622     0.479    -0.000
   293   6 C        2.760     0.248    -0.000
   294   7 N        2.876     0.001    -0.000
   295   6 C        2.751     0.842    -0.000
   296   7 N        2.552     5.333    -0.000
   297   6 C        3.233     0.000    -0.000
   298   6 C        2.941     0.000     0.000
   299   7 N        2.321     0.498    -0.000
   300   7 N        2.703     0.000     0.000
   301   6 C        2.813     0.037    -0.000
   302   7 N        2.599     3.150    -0.000
   303   6 C        3.259     0.008    -0.000
   304   1 H        1.900    11.763    -0.020
   305   1 H        1.902    12.217    -0.021
   306   1 H        1.934    17.132    -0.029
   307   1 H        1.979     9.457    -0.016
   308   1 H        2.028     6.114    -0.010
   309   1 H        2.019     2.293    -0.004
   310   1 H        2.061     4.183    -0.007
   311   1 H        2.041     0.314    -0.001
   312   1 H        1.999     1.065    -0.002
   313   1 H        1.957     9.599    -0.016
   314   1 H        2.085     2.055    -0.003
   315  15 P        2.764     7.513    -0.002
   316   6 C        2.453     0.366    -0.000
   317   8 O        2.301     2.763    -0.000
   318   6 C        2.597     0.054    -0.000
   319   8 O        2.492     0.074    -0.000
   320   6 C        2.664     0.013    -0.000
   321   8 O        2.354     3.438    -0.000
   322   6 C        2.694     0.001    -0.000
   323   6 C        2.811     0.001    -0.000
   324   7 N        2.780     0.014    -0.000
   325   6 C        2.791     0.051    -0.000
   326   8 O        2.271     2.717    -0.000
   327   7 N        2.610     0.006    -0.000
   328   6 C        2.757     1.259    -0.000
   329   7 N        2.268     1.992    -0.000
   330   6 C        2.684     4.795    -0.000
   331   6 C        2.739     2.499    -0.000
   332   8 O        2.068    27.839    -0.003
   333   8 O        2.082     9.844    -0.001
   334   9 F        2.065     1.769    -0.001
   335   9 F        2.038     9.416    -0.003
   336   1 H        1.883    14.879    -0.025
   337   1 H        1.917    10.390    -0.017
   338   1 H        1.984    14.075    -0.024
   339   1 H        2.011     7.529    -0.013
   340   1 H        2.065     6.192    -0.010
   341   1 H        1.912    16.755    -0.028
   342   1 H        2.005     0.676    -0.001
   343   1 H        1.975    15.307    -0.026
   344   1 H        2.039     5.206    -0.009
   345  15 P        2.779     6.131    -0.001
   346   8 O        2.072    26.713    -0.003
   347   8 O        2.098     6.422    -0.001
   348   8 O        2.336     0.108    -0.000
   349   6 C        2.453     0.352    -0.000
   350   6 C        2.524     0.157    -0.000
   351   8 O        2.363     9.254    -0.001
   352   6 C        2.474     0.821    -0.000
   353   8 O        2.046    19.274    -0.002
   354   6 C        2.509     1.179    -0.000
   355   6 C        2.656     0.219    -0.000
   356   7 N        2.725     0.614    -0.000
   357   6 C        2.656     4.800    -0.000
   358   7 N        2.433    12.413    -0.001
   359   6 C        2.903     3.299    -0.000
   360   6 C        2.636     4.426    -0.000
   361   8 O        2.164    15.268    -0.002
   362   7 N        2.529     2.351    -0.000
   363   6 C        2.675     3.871    -0.000
   364   7 N        2.224     5.816    -0.000
   365   7 N        2.482     7.905    -0.001
   366   6 C        2.989     4.044    -0.000
   367   1 H        1.900    12.717    -0.021
   368   1 H        1.887    12.980    -0.022
   369   1 H        1.912    16.092    -0.027
   370   1 H        1.918    15.207    -0.026
   371   1 H        1.768    16.204    -0.027
   372   1 H        1.984     8.769    -0.015
   373   1 H        1.899    19.704    -0.033
   374   1 H        1.986    10.832    -0.018
   375   1 H        1.986     3.838    -0.006
   376   1 H        2.246     0.967    -0.002
   377   1 H        1.938     3.507    -0.006
   378   1 H        1.888    22.174    -0.037
   379   1 H        1.763    25.689    -0.043
   380   1 H        1.756    26.949    -0.045
   381   1 H        1.787    17.063    -0.029
   382   1 H        1.797    11.703    -0.020
   383   1 H        1.812     9.089    -0.015
   384   1 H        1.762    25.950    -0.044
   385   1 H        1.758    26.067    -0.044
   386   1 H        1.763    26.352    -0.044
   387   1 H        1.762    26.628    -0.045
   388   1 H        1.809    11.525    -0.019

 total SASA / Å² :     2437.397

     #   Z          covCN         q      C6AA      α(0)
     1   8 O        1.654    -0.485    22.569     6.413
     2   6 C        3.674     0.059    19.817     6.379
     3   6 C        3.792     0.092    19.062     6.218
     4   8 O        1.699    -0.333    19.583     5.975
     5   6 C        3.956     0.112    18.681     6.141
     6   8 O        1.658    -0.353    19.956     6.031
     7   6 C        3.837    -0.086    22.106     6.689
     8   6 C        3.712     0.169    18.009     6.064
     9   7 N        2.738    -0.094    23.077     7.135
    10   6 C        2.741     0.328    21.428     7.579
    11   8 O        0.861    -0.547    24.840     6.682
    12   7 N        1.858    -0.370    30.509     8.187
    13   6 C        2.867     0.193    23.895     8.013
    14   7 N        2.663    -0.251    26.530     7.650
    15   6 C        2.909    -0.092    30.297     9.026
    16   6 C        2.861     0.037    27.165     8.543
    17   1 H        0.925     0.061     2.189     2.314
    18   1 H        0.924     0.071     2.072     2.251
    19   1 H        0.925     0.063     2.162     2.299
    20   1 H        0.924     0.066     2.135     2.285
    21   1 H        0.925     0.069     2.097     2.265
    22   1 H        0.925     0.077     2.012     2.218
    23   1 H        0.924     0.083     1.945     2.181
    24   1 H        0.860     0.242     0.914     1.498
    25   1 H        0.861     0.246     0.898     1.484
    26   1 H        0.926     0.108     1.711     2.045
    27   1 H        0.925     0.101     1.776     2.084
    28   1 H        0.805     0.344     0.603     1.219
    29  15 P        3.743     0.786   129.788    20.465
    30   8 O        0.808    -0.586    25.794     6.808
    31   8 O        1.614    -0.393    20.732     6.145
    32   8 O        1.657    -0.346    19.832     6.012
    33   6 C        3.882     0.062    19.492     6.277
    34   6 C        3.779     0.091    19.093     6.225
    35   8 O        1.698    -0.328    19.487     5.960
    36   6 C        3.919     0.109    18.741     6.153
    37   8 O        1.657    -0.349    19.892     6.021
    38   6 C        3.831    -0.099    22.367     6.729
    39   6 C        3.694     0.166    18.088     6.085
    40   7 N        2.809    -0.062    22.443     7.036
    41   6 C        3.167     0.082    25.842     8.307
    42   7 N        1.869    -0.277    28.030     7.848
    43   6 C        3.204    -0.014    27.772     8.585
    44   6 C        2.768     0.261    22.605     7.787
    45   8 O        0.859    -0.488    23.522     6.503
    46   7 N        2.710    -0.198    25.299     7.470
    47   6 C        2.829     0.236    23.060     7.869
    48   7 N        2.661    -0.277    27.159     7.740
    49   7 N        1.845    -0.361    30.246     8.151
    50   6 C        3.097     0.122    25.217     8.230
    51   1 H        0.925     0.069     2.096     2.264
    52   1 H        0.924     0.075     2.029     2.228
    53   1 H        0.925     0.094     1.839     2.120
    54   1 H        0.924     0.077     2.008     2.216
    55   1 H        0.925     0.100     1.789     2.091
    56   1 H        0.925     0.093     1.849     2.126
    57   1 H        0.924     0.080     1.976     2.199
    58   1 H        0.925     0.081     1.969     2.194
    59   1 H        0.861     0.235     0.943     1.522
    60   1 H        0.860     0.236     0.940     1.519
    61   1 H        0.861     0.236     0.938     1.517
    62  15 P        3.700     0.769   130.361    20.510
    63   8 O        0.808    -0.600    26.148     6.855
    64   8 O        1.614    -0.395    20.767     6.151
    65   8 O        1.657    -0.346    19.835     6.012
    66   6 C        3.869     0.060    19.528     6.284
    67   6 C        3.803     0.091    19.071     6.217
    68   8 O        1.700    -0.321    19.367     5.942
    69   6 C        3.931     0.110    18.722     6.149
    70   8 O        1.657    -0.359    20.062     6.047
    71   6 C        3.835    -0.101    22.390     6.732
    72   6 C        3.751     0.176    17.839     6.023
    73   7 N        2.738    -0.061    22.430     7.034
    74   6 C        2.703     0.327    21.437     7.578
    75   8 O        0.859    -0.522    24.271     6.605
    76   7 N        2.700    -0.197    25.267     7.465
    77   6 C        2.761     0.276    22.331     7.739
    78   8 O        0.859    -0.455    22.818     6.404
    79   6 C        2.953    -0.030    28.745     8.794
    80   6 C        3.756    -0.141    23.279     6.879
    81   6 C        2.850     0.020    27.548     8.602
    82   1 H        0.925     0.080     1.983     2.202
    83   1 H        0.924     0.075     2.035     2.231
    84   1 H        0.925     0.089     1.886     2.148
    85   1 H        0.924     0.078     1.996     2.209
    86   1 H        0.925     0.111     1.692     2.034
    87   1 H        0.925     0.085     1.929     2.172
    88   1 H        0.924     0.055     2.260     2.351
    89   1 H        0.861     0.234     0.950     1.526
    90   1 H        0.925     0.090     1.883     2.146
    91   1 H        0.924     0.102     1.771     2.081
    92   1 H        0.925     0.079     1.994     2.208
    93   1 H        0.925     0.122     1.599     1.978
    94  15 P        3.700     0.782   129.933    20.476
    95   8 O        0.808    -0.599    26.132     6.852
    96   8 O        1.614    -0.399    20.856     6.164
    97   8 O        1.657    -0.353    19.965     6.032
    98   6 C        3.879     0.063    19.475     6.274
    99   6 C        3.786     0.094    19.042     6.216
   100   8 O        1.700    -0.338    19.661     5.987
   101   6 C        3.956     0.112    18.692     6.143
   102   8 O        1.658    -0.361    20.106     6.053
   103   6 C        3.826    -0.094    22.271     6.715
   104   6 C        3.723     0.176    17.883     6.039
   105   7 N        2.837    -0.070    22.601     7.061
   106   6 C        3.164     0.099    25.483     8.250
   107   7 N        1.872    -0.285    28.233     7.876
   108   6 C        3.228     0.004    27.133     8.461
   109   6 C        2.898     0.170    24.342     8.089
   110   7 N        2.659    -0.245    26.394     7.630
   111   7 N        1.855    -0.334    29.520     8.053
   112   6 C        2.916     0.152    24.715     8.152
   113   7 N        1.827    -0.362    30.266     8.152
   114   6 C        3.142     0.137    24.796     8.148
   115   1 H        0.925     0.071     2.075     2.253
   116   1 H        0.924     0.076     2.021     2.223
   117   1 H        0.925     0.088     1.898     2.154
   118   1 H        0.924     0.077     2.008     2.216
   119   1 H        0.925     0.096     1.818     2.108
   120   1 H        0.925     0.079     1.987     2.204
   121   1 H        0.924     0.063     2.164     2.300
   122   1 H        0.926     0.080     1.975     2.198
   123   1 H        0.860     0.263     0.836     1.433
   124   1 H        0.861     0.243     0.911     1.495
   125   1 H        0.925     0.014     2.818     2.625
   126  15 P        3.742     0.792   129.588    20.449
   127   6 C        3.886     0.066    19.426     6.266
   128   8 O        1.657    -0.342    19.759     6.001
   129   6 C        3.833     0.097    18.960     6.195
   130   8 O        1.701    -0.316    19.281     5.928
   131   6 C        3.969     0.103    18.824     6.164
   132   8 O        1.657    -0.341    19.746     5.999
   133   6 C        3.537     0.309    16.877     6.027
   134   6 C        3.762     0.174    17.855     6.023
   135   7 N        2.742    -0.099    23.170     7.149
   136   6 C        2.763     0.335    21.309     7.560
   137   8 O        0.863    -0.553    24.994     6.703
   138   7 N        1.867    -0.357    30.141     8.138
   139   6 C        2.894     0.199    23.783     7.996
   140   7 N        2.676    -0.240    26.258     7.611
   141   6 C        2.917    -0.095    30.393     9.040
   142   6 C        2.868     0.046    26.968     8.513
   143   8 O        0.808    -0.605    26.274     6.871
   144   8 O        1.614    -0.400    20.866     6.165
   145   9 F        0.785    -0.230    11.545     4.014
   146   9 F        0.784    -0.224    11.486     4.003
   147   1 H        0.924     0.098     1.804     2.101
   148   1 H        0.924     0.087     1.912     2.163
   149   1 H        0.925     0.082     1.958     2.188
   150   1 H        0.924     0.104     1.753     2.070
   151   1 H        0.924     0.086     1.915     2.164
   152   1 H        0.861     0.268     0.817     1.416
   153   1 H        0.860     0.270     0.811     1.411
   154   1 H        0.926     0.116     1.648     2.007
   155   1 H        0.925     0.082     1.963     2.191
   156  15 P        3.776     0.805   129.158    20.415
   157   8 O        0.808    -0.600    26.143     6.854
   158   8 O        1.614    -0.414    21.151     6.207
   159   8 O        1.657    -0.354    19.971     6.033
   160   6 C        3.889     0.071    19.347     6.253
   161   6 C        3.787     0.088    19.129     6.229
   162   8 O        1.700    -0.342    19.742     5.999
   163   6 C        3.737     0.111    18.832     6.193
   164   8 O        1.655    -0.488    22.632     6.422
   165   6 C        3.832    -0.088    22.157     6.697
   166   6 C        3.704     0.163    18.106     6.084
   167   7 N        2.822    -0.077    22.732     7.081
   168   6 C        3.161     0.101    25.451     8.246
   169   7 N        1.877    -0.313    28.971     7.979
   170   6 C        3.201    -0.015    27.818     8.594
   171   6 C        2.769     0.262    22.589     7.784
   172   8 O        0.860    -0.504    23.864     6.550
   173   7 N        2.712    -0.194    25.199     7.456
   174   6 C        2.835     0.238    23.031     7.864
   175   7 N        2.663    -0.280    27.225     7.749
   176   7 N        1.846    -0.367    30.429     8.175
   177   6 C        3.110     0.123    25.166     8.219
   178   1 H        0.924     0.065     2.140     2.288
   179   1 H        0.925     0.077     2.005     2.215
   180   1 H        0.925     0.082     1.958     2.188
   181   1 H        0.924     0.037     2.491     2.468
   182   1 H        0.805     0.366     0.552     1.167
   183   1 H        0.924     0.073     2.057     2.243
   184   1 H        0.925     0.098     1.801     2.099
   185   1 H        0.924     0.092     1.862     2.134
   186   1 H        0.925     0.044     2.402     2.424
   187   1 H        0.861     0.242     0.914     1.498
   188   1 H        0.860     0.253     0.872     1.463
   189   1 H        0.861     0.263     0.836     1.432
   190   8 O        1.653    -0.482    22.511     6.405
   191   6 C        3.673     0.056    19.871     6.389
   192   6 C        3.793     0.092    19.074     6.219
   193   8 O        1.699    -0.329    19.508     5.963
   194   6 C        3.981     0.113    18.663     6.138
   195   8 O        1.658    -0.360    20.092     6.051
   196   6 C        3.837    -0.085    22.086     6.686
   197   6 C        3.715     0.169    18.003     6.062
   198   7 N        2.736    -0.097    23.129     7.143
   199   6 C        2.744     0.327    21.437     7.581
   200   8 O        0.861    -0.555    25.027     6.707
   201   7 N        1.857    -0.373    30.596     8.198
   202   6 C        2.867     0.195    23.854     8.006
   203   7 N        2.662    -0.250    26.505     7.646
   204   6 C        2.908    -0.093    30.336     9.031
   205   6 C        2.858     0.040    27.093     8.532
   206   1 H        0.925     0.087     1.909     2.161
   207   1 H        0.924     0.057     2.232     2.337
   208   1 H        0.925     0.062     2.176     2.307
   209   1 H        0.924     0.059     2.210     2.325
   210   1 H        0.925     0.069     2.096     2.264
   211   1 H        0.925     0.077     2.011     2.218
   212   1 H        0.924     0.081     1.970     2.195
   213   1 H        0.860     0.242     0.915     1.498
   214   1 H        0.861     0.255     0.864     1.456
   215   1 H        0.926     0.106     1.735     2.060
   216   1 H        0.926     0.105     1.742     2.064
   217   1 H        0.804     0.346     0.598     1.214
   218  15 P        3.771     0.794   129.511    20.443
   219   8 O        0.808    -0.580    25.649     6.789
   220   8 O        1.614    -0.384    20.563     6.120
   221   8 O        1.657    -0.348    19.877     6.018
   222   6 C        3.889     0.062    19.492     6.276
   223   6 C        3.781     0.093    19.071     6.221
   224   8 O        1.698    -0.327    19.481     5.959
   225   6 C        3.942     0.109    18.735     6.151
   226   8 O        1.658    -0.363    20.143     6.059
   227   6 C        3.830    -0.104    22.464     6.744
   228   6 C        3.700     0.169    18.035     6.073
   229   7 N        2.815    -0.063    22.449     7.037
   230   6 C        3.160     0.084    25.825     8.308
   231   7 N        1.872    -0.282    28.170     7.867
   232   6 C        3.208    -0.011    27.656     8.563
   233   6 C        2.769     0.263    22.559     7.779
   234   8 O        0.860    -0.486    23.486     6.498
   235   7 N        2.712    -0.196    25.251     7.463
   236   6 C        2.826     0.237    23.057     7.868
   237   7 N        2.661    -0.280    27.221     7.749
   238   7 N        1.841    -0.364    30.324     8.161
   239   6 C        3.085     0.121    25.251     8.237
   240   1 H        0.925     0.072     2.065     2.247
   241   1 H        0.924     0.073     2.055     2.242
   242   1 H        0.925     0.092     1.858     2.132
   243   1 H        0.924     0.073     2.050     2.239
   244   1 H        0.925     0.103     1.761     2.075
   245   1 H        0.925     0.091     1.867     2.137
   246   1 H        0.924     0.079     1.994     2.208
   247   1 H        0.925     0.080     1.978     2.200
   248   1 H        0.860     0.231     0.961     1.536
   249   1 H        0.860     0.238     0.933     1.513
   250   1 H        0.861     0.245     0.905     1.490
   251  15 P        3.750     0.789   129.676    20.456
   252   8 O        0.808    -0.586    25.795     6.808
   253   8 O        1.614    -0.388    20.647     6.133
   254   8 O        1.657    -0.344    19.795     6.006
   255   6 C        3.901     0.060    19.516     6.280
   256   6 C        3.801     0.093    19.044     6.213
   257   8 O        1.701    -0.321    19.368     5.942
   258   6 C        3.924     0.109    18.735     6.151
   259   8 O        1.657    -0.362    20.126     6.056
   260   6 C        3.833    -0.106    22.497     6.748
   261   6 C        3.740     0.174    17.880     6.033
   262   7 N        2.737    -0.060    22.402     7.030
   263   6 C        2.701     0.327    21.447     7.580
   264   8 O        0.859    -0.526    24.361     6.617
   265   7 N        2.698    -0.195    25.224     7.459
   266   6 C        2.761     0.275    22.345     7.741
   267   8 O        0.859    -0.455    22.804     6.402
   268   6 C        2.950    -0.030    28.758     8.796
   269   6 C        3.754    -0.142    23.300     6.883
   270   6 C        2.845     0.017    27.622     8.613
   271   1 H        0.925     0.079     1.985     2.203
   272   1 H        0.924     0.070     2.085     2.258
   273   1 H        0.925     0.085     1.925     2.170
   274   1 H        0.924     0.076     2.025     2.226
   275   1 H        0.925     0.113     1.670     2.021
   276   1 H        0.925     0.092     1.863     2.135
   277   1 H        0.924     0.061     2.189     2.314
   278   1 H        0.861     0.233     0.950     1.527
   279   1 H        0.925     0.087     1.904     2.158
   280   1 H        0.925     0.106     1.735     2.060
   281   1 H        0.925     0.080     1.980     2.201
   282   1 H        0.926     0.123     1.593     1.974
   283  15 P        3.744     0.798   129.378    20.432
   284   8 O        0.808    -0.596    26.056     6.842
   285   8 O        1.614    -0.393    20.737     6.146
   286   8 O        1.657    -0.353    19.960     6.031
   287   6 C        3.922     0.063    19.473     6.272
   288   6 C        3.794     0.094    19.030     6.212
   289   8 O        1.701    -0.333    19.578     5.974
   290   6 C        3.946     0.109    18.727     6.149
   291   8 O        1.658    -0.350    19.905     6.023
   292   6 C        3.829    -0.096    22.305     6.720
   293   6 C        3.722     0.174    17.914     6.045
   294   7 N        2.836    -0.068    22.557     7.054
   295   6 C        3.171     0.093    25.574     8.261
   296   7 N        1.872    -0.281    28.134     7.862
   297   6 C        3.237     0.003    27.063     8.439
   298   6 C        2.899     0.170    24.342     8.089
   299   7 N        2.658    -0.251    26.530     7.650
   300   7 N        1.853    -0.337    29.595     8.063
   301   6 C        2.916     0.154    24.670     8.145
   302   7 N        1.827    -0.360    30.232     8.147
   303   6 C        3.138     0.136    24.832     8.156
   304   1 H        0.924     0.071     2.080     2.255
   305   1 H        0.924     0.072     2.067     2.249
   306   1 H        0.925     0.087     1.913     2.163
   307   1 H        0.924     0.080     1.981     2.201
   308   1 H        0.925     0.099     1.796     2.095
   309   1 H        0.925     0.083     1.947     2.182
   310   1 H        0.924     0.065     2.146     2.291
   311   1 H        0.926     0.087     1.905     2.158
   312   1 H        0.860     0.259     0.848     1.442
   313   1 H        0.861     0.245     0.901     1.487
   314   1 H        0.925     0.010     2.888     2.658
   315  15 P        3.717     0.772   130.271    20.503
   316   6 C        3.867     0.065    19.452     6.272
   317   8 O        1.656    -0.343    19.769     6.002
   318   6 C        3.815     0.097    18.978     6.200
   319   8 O        1.700    -0.312    19.200     5.916
   320   6 C        3.906     0.099    18.902     6.180
   321   8 O        1.655    -0.335    19.635     5.982
   322   6 C        3.535     0.312    16.842     6.023
   323   6 C        3.742     0.177    17.834     6.025
   324   7 N        2.740    -0.093    23.066     7.133
   325   6 C        2.764     0.335    21.306     7.559
   326   8 O        0.863    -0.551    24.932     6.695
   327   7 N        1.874    -0.355    30.101     8.133
   328   6 C        2.893     0.197    23.807     8.000
   329   7 N        2.681    -0.249    26.480     7.643
   330   6 C        2.915    -0.098    30.459     9.050
   331   6 C        2.870     0.045    26.993     8.517
   332   8 O        0.808    -0.600    26.139     6.853
   333   8 O        1.614    -0.393    20.729     6.145
   334   9 F        0.785    -0.227    11.523     4.010
   335   9 F        0.784    -0.220    11.447     3.996
   336   1 H        0.924     0.097     1.813     2.106
   337   1 H        0.924     0.085     1.924     2.169
   338   1 H        0.924     0.082     1.954     2.186
   339   1 H        0.924     0.112     1.680     2.027
   340   1 H        0.924     0.078     2.000     2.212
   341   1 H        0.861     0.268     0.816     1.415
   342   1 H        0.860     0.267     0.822     1.420
   343   1 H        0.926     0.121     1.604     1.980
   344   1 H        0.925     0.091     1.871     2.139
   345  15 P        3.745     0.789   129.680    20.456
   346   8 O        0.808    -0.601    26.184     6.859
   347   8 O        1.614    -0.406    20.985     6.183
   348   8 O        1.657    -0.350    19.907     6.023
   349   6 C        3.912     0.067    19.396     6.260
   350   6 C        3.778     0.087    19.155     6.235
   351   8 O        1.700    -0.344    19.779     6.005
   352   6 C        3.743     0.104    18.940     6.209
   353   8 O        1.655    -0.486    22.593     6.417
   354   6 C        3.821    -0.096    22.306     6.721
   355   6 C        3.710     0.167    18.036     6.069
   356   7 N        2.825    -0.071    22.610     7.062
   357   6 C        3.160     0.100    25.487     8.253
   358   7 N        1.873    -0.305    28.763     7.950
   359   6 C        3.221    -0.012    27.575     8.537
   360   6 C        2.769     0.261    22.597     7.785
   361   8 O        0.859    -0.516    24.131     6.586
   362   7 N        2.715    -0.195    25.219     7.458
   363   6 C        2.833     0.237    23.044     7.866
   364   7 N        2.660    -0.278    27.178     7.743
   365   7 N        1.840    -0.361    30.249     8.151
   366   6 C        3.092     0.123    25.204     8.229
   367   1 H        0.924     0.054     2.268     2.355
   368   1 H        0.924     0.070     2.081     2.256
   369   1 H        0.925     0.084     1.942     2.179
   370   1 H        0.924     0.069     2.097     2.265
   371   1 H        0.805     0.358     0.569     1.185
   372   1 H        0.925     0.068     2.111     2.272
   373   1 H        0.925     0.095     1.830     2.116
   374   1 H        0.924     0.082     1.957     2.188
   375   1 H        0.925     0.050     2.317     2.380
   376   1 H        0.861     0.244     0.909     1.493
   377   1 H        0.860     0.252     0.877     1.467
   378   1 H        0.861     0.265     0.828     1.426
   379   1 H        0.902     0.496     0.337     0.908
   380   1 H        0.897     0.495     0.338     0.910
   381   1 H        0.900     0.475     0.363     0.942
   382   1 H        0.897     0.462     0.379     0.963
   383   1 H        0.897     0.446     0.402     0.992
   384   1 H        0.899     0.499     0.333     0.903
   385   1 H        0.899     0.498     0.335     0.905
   386   1 H        0.898     0.494     0.340     0.912
   387   1 H        0.897     0.491     0.343     0.916
   388   1 H        0.896     0.454     0.391     0.979

 Mol. C6AA /au·bohr⁶  :    1957615.903477
 Mol. C8AA /au·bohr⁸  :   48423216.795011
 Mol. α(0) /au        :       2112.640954


Wiberg/Mayer (AO) data.
largest (>0.10) Wiberg bond orders for each atom

 ---------------------------------------------------------------------------
     #   Z sym  total        # sym  WBO       # sym  WBO       # sym  WBO
 ---------------------------------------------------------------------------
     1   8 O    1.925 --     2 C    1.007    28 H    0.852
     2   6 C    3.957 --     1 O    1.007     3 C    0.981    18 H    0.968
                            17 H    0.967
     3   6 C    3.939 --     2 C    0.981     5 C    0.970     4 O    0.957
                            19 H    0.957
     4   8 O    2.079 --     8 C    0.976     3 C    0.957
     5   6 C    3.925 --     7 C    0.988     3 C    0.970    20 H    0.952
                             6 O    0.939
     6   8 O    2.258 --    29 P    1.112     5 C    0.939
     7   6 C    3.988 --     5 C    0.988     8 C    0.984    21 H    0.968
                            22 H    0.967
     8   6 C    3.932 --     7 C    0.984     4 O    0.976    23 H    0.953
                             9 N    0.946
     9   7 N    3.573 --    16 C    1.199    10 C    1.086     8 C    0.946
                            11 O    0.112
    10   6 C    3.952 --    11 O    1.518    12 N    1.250     9 N    1.086
    11   8 O    1.913 --    10 C    1.518    12 N    0.120     9 N    0.112
    12   7 N    3.066 --    13 C    1.343    10 C    1.250    11 O    0.120
                            14 N    0.105
    13   6 C    3.966 --    14 N    1.368    12 N    1.343    15 C    1.160
    14   7 N    3.428 --    13 C    1.368    25 H    0.911    24 H    0.871
                            12 N    0.105
    15   6 C    3.976 --    16 C    1.650    13 C    1.160    26 H    0.956
    16   6 C    3.954 --    15 C    1.650     9 N    1.199    27 H    0.946
    17   1 H    0.996 --     2 C    0.967
    18   1 H    0.995 --     2 C    0.968
    19   1 H    0.996 --     3 C    0.957
    20   1 H    0.996 --     5 C    0.952
    21   1 H    0.995 --     7 C    0.968
    22   1 H    0.994 --     7 C    0.967
    23   1 H    0.992 --     8 C    0.953
    24   1 H    0.941 --    14 N    0.871
    25   1 H    0.938 --    14 N    0.911
    26   1 H    0.988 --    15 C    0.956
    27   1 H    0.989 --    16 C    0.946
    28   1 H    0.882 --     1 O    0.852
    29  15 P    5.411 --    30 O    1.768    31 O    1.368     6 O    1.112
                            32 O    1.098
    30   8 O    1.972 --    29 P    1.768
    31   8 O    2.278 --    29 P    1.368   388 H    0.740
    32   8 O    2.248 --    29 P    1.098    33 C    0.946
    33   6 C    3.924 --    34 C    0.982    52 H    0.966    51 H    0.965
                            32 O    0.946
    34   6 C    3.947 --    33 C    0.982    36 C    0.973    35 O    0.965
                            53 H    0.951
    35   8 O    2.074 --    39 C    0.972    34 C    0.965
    36   6 C    3.926 --    38 C    0.992    34 C    0.973    54 H    0.959
                            37 O    0.930
    37   8 O    2.257 --    62 P    1.123    36 C    0.930
    38   6 C    3.983 --    36 C    0.992    39 C    0.985    55 H    0.962
                            56 H    0.959
    39   6 C    3.928 --    38 C    0.985    35 O    0.972    57 H    0.954
                            40 N    0.949
    40   7 N    3.594 --    41 C    1.192    50 C    1.172    39 C    0.949
                            42 N    0.112
    41   6 C    3.940 --    42 N    1.607    40 N    1.192    58 H    0.937
    42   7 N    3.015 --    41 C    1.607    43 C    1.193    40 N    0.112
    43   6 C    3.962 --    50 C    1.347    42 N    1.193    44 C    1.133
    44   6 C    3.947 --    45 O    1.561    46 N    1.135    43 C    1.133
    45   8 O    1.966 --    44 C    1.561    46 N    0.133
    46   7 N    3.516 --    47 C    1.173    44 C    1.135    59 H    0.854
                            45 O    0.133
    47   6 C    3.966 --    49 N    1.370    48 N    1.326    46 N    1.173
    48   7 N    3.385 --    47 C    1.326    61 H    0.921    60 H    0.869
                            49 N    0.104
    49   7 N    2.966 --    47 C    1.370    50 C    1.237    48 N    0.104
    50   6 C    3.960 --    43 C    1.347    49 N    1.237    40 N    1.172
    51   1 H    0.995 --    33 C    0.965
    52   1 H    0.994 --    33 C    0.966
    53   1 H    0.990 --    34 C    0.951
    54   1 H    0.994 --    36 C    0.959
    55   1 H    0.990 --    38 C    0.962
    56   1 H    0.991 --    38 C    0.959
    57   1 H    0.994 --    39 C    0.954
    58   1 H    0.993 --    41 C    0.937
    59   1 H    0.944 --    46 N    0.854
    60   1 H    0.944 --    48 N    0.869
    61   1 H    0.943 --    48 N    0.921
    62  15 P    5.419 --    63 O    1.745    64 O    1.396    37 O    1.123
                            65 O    1.091
    63   8 O    1.958 --    62 P    1.745
    64   8 O    2.284 --    62 P    1.396   387 H    0.726
    65   8 O    2.241 --    62 P    1.091    66 C    0.947
    66   6 C    3.926 --    67 C    0.984    83 H    0.967    82 H    0.966
                            65 O    0.947
    67   6 C    3.945 --    66 C    0.984    69 C    0.968    68 O    0.963
                            84 H    0.951
    68   8 O    2.069 --    72 C    0.971    67 C    0.963
    69   6 C    3.924 --    71 C    0.995    67 C    0.968    85 H    0.959
                            70 O    0.928
    70   8 O    2.249 --    94 P    1.110    69 C    0.928
    71   6 C    3.981 --    69 C    0.995    72 C    0.982    87 H    0.960
                            86 H    0.957
    72   6 C    3.933 --    71 C    0.982    68 O    0.971    73 N    0.957
                            88 H    0.952
    73   7 N    3.581 --    81 C    1.154    74 C    1.133    72 C    0.957
                            75 O    0.133
    74   6 C    3.958 --    75 O    1.588    76 N    1.152    73 N    1.133
    75   8 O    1.931 --    74 C    1.588    73 N    0.133    76 N    0.129
    76   7 N    3.521 --    74 C    1.152    77 C    1.139    89 H    0.851
                            78 O    0.138    75 O    0.129
    77   6 C    3.936 --    78 O    1.609    76 N    1.139    79 C    1.088
    78   8 O    2.009 --    77 C    1.609    76 N    0.138
    79   6 C    3.977 --    81 C    1.650    77 C    1.088    80 C    1.020
    80   6 C    3.976 --    79 C    1.020    90 H    0.977    91 H    0.965
                            92 H    0.962
    81   6 C    3.941 --    79 C    1.650    73 N    1.154    93 H    0.941
    82   1 H    0.993 --    66 C    0.966
    83   1 H    0.994 --    66 C    0.967
    84   1 H    0.991 --    67 C    0.951
    85   1 H    0.993 --    69 C    0.959
    86   1 H    0.987 --    71 C    0.957
    87   1 H    0.993 --    71 C    0.960
    88   1 H    0.996 --    72 C    0.952
    89   1 H    0.945 --    76 N    0.851
    90   1 H    0.992 --    80 C    0.977
    91   1 H    0.988 --    80 C    0.965
    92   1 H    0.992 --    80 C    0.962
    93   1 H    0.985 --    81 C    0.941
    94  15 P    5.395 --    95 O    1.742    96 O    1.391    70 O    1.110
                            97 O    1.082
    95   8 O    1.955 --    94 P    1.742
    96   8 O    2.276 --    94 P    1.391   386 H    0.723
    97   8 O    2.236 --    94 P    1.082    98 C    0.949
    98   6 C    3.927 --    99 C    0.980   115 H    0.967   116 H    0.965
                            97 O    0.949
    99   6 C    3.945 --    98 C    0.980   101 C    0.972   100 O    0.966
                           117 H    0.951
   100   8 O    2.072 --   104 C    0.969    99 C    0.966
   101   6 C    3.928 --   103 C    0.991    99 C    0.972   118 H    0.958
                           102 O    0.935
   102   8 O    2.246 --   126 P    1.100   101 C    0.935
   103   6 C    3.985 --   101 C    0.991   104 C    0.983   120 H    0.966
                           119 H    0.963
   104   6 C    3.934 --   103 C    0.983   100 O    0.969   105 N    0.959
                           121 H    0.956
   105   7 N    3.600 --   106 C    1.212   114 C    1.162   104 C    0.959
                           107 N    0.110
   106   6 C    3.946 --   107 N    1.599   105 N    1.212   122 H    0.946
   107   7 N    2.997 --   106 C    1.599   108 C    1.179   105 N    0.110
   108   6 C    3.968 --   114 C    1.338   109 C    1.186   107 N    1.179
   109   6 C    3.975 --   110 N    1.367   111 N    1.285   108 C    1.186
   110   7 N    3.442 --   109 C    1.367   124 H    0.922   123 H    0.860
   111   7 N    3.081 --   112 C    1.408   109 C    1.285
   112   6 C    3.973 --   113 N    1.467   111 N    1.408   125 H    0.958
   113   7 N    3.000 --   112 C    1.467   114 C    1.246
   114   6 C    3.957 --   108 C    1.338   113 N    1.246   105 N    1.162
   115   1 H    0.995 --    98 C    0.967
   116   1 H    0.994 --    98 C    0.965
   117   1 H    0.991 --    99 C    0.951
   118   1 H    0.994 --   101 C    0.958
   119   1 H    0.990 --   103 C    0.963
   120   1 H    0.994 --   103 C    0.966
   121   1 H    0.996 --   104 C    0.956
   122   1 H    0.993 --   106 C    0.946
   123   1 H    0.930 --   110 N    0.860
   124   1 H    0.941 --   110 N    0.922
   125   1 H    0.999 --   112 C    0.958
   126  15 P    5.389 --   143 O    1.741   144 O    1.390   102 O    1.100
                           128 O    1.091
   127   6 C    3.925 --   129 C    0.989   148 H    0.964   147 H    0.963
                           128 O    0.951
   128   8 O    2.240 --   126 P    1.091   127 C    0.951
   129   6 C    3.939 --   127 C    0.989   131 C    0.962   130 O    0.959
                           149 H    0.951
   130   8 O    2.069 --   134 C    0.980   129 C    0.959
   131   6 C    3.935 --   132 O    0.967   129 C    0.962   133 C    0.948
                           150 H    0.948
   132   8 O    2.250 --   156 P    1.076   131 C    0.967
   133   6 C    3.841 --   131 C    0.948   146 F    0.939   145 F    0.937
                           134 C    0.936
   134   6 C    3.946 --   130 O    0.980   135 N    0.975   151 H    0.947
                           133 C    0.936
   135   7 N    3.549 --   142 C    1.178   136 C    1.067   134 C    0.975
                           137 O    0.106
   136   6 C    3.947 --   137 O    1.514   138 N    1.268   135 N    1.067
   137   8 O    1.910 --   136 C    1.514   138 N    0.123   135 N    0.106
   138   7 N    3.058 --   139 C    1.329   136 C    1.268   137 O    0.123
                           140 N    0.108
   139   6 C    3.971 --   140 N    1.408   138 N    1.329   141 C    1.145
   140   7 N    3.453 --   139 C    1.408   152 H    0.906   153 H    0.851
                           138 N    0.108
   141   6 C    3.971 --   142 C    1.667   139 C    1.145   154 H    0.954
   142   6 C    3.947 --   141 C    1.667   135 N    1.178   155 H    0.956
   143   8 O    1.948 --   126 P    1.741
   144   8 O    2.272 --   126 P    1.390   385 H    0.718
   145   9 F    1.045 --   133 C    0.937
   146   9 F    1.046 --   133 C    0.939
   147   1 H    0.990 --   127 C    0.963
   148   1 H    0.992 --   127 C    0.964
   149   1 H    0.993 --   129 C    0.951
   150   1 H    0.989 --   131 C    0.948
   151   1 H    0.992 --   134 C    0.947
   152   1 H    0.928 --   140 N    0.906
   153   1 H    0.927 --   140 N    0.851
   154   1 H    0.986 --   141 C    0.954
   155   1 H    0.993 --   142 C    0.956
   156  15 P    5.381 --   157 O    1.740   158 O    1.380   159 O    1.117
                           132 O    1.076
   157   8 O    1.949 --   156 P    1.740
   158   8 O    2.260 --   156 P    1.380   384 H    0.716
   159   8 O    2.243 --   156 P    1.117   160 C    0.931
   160   6 C    3.915 --   161 C    0.987   178 H    0.968   179 H    0.966
                           159 O    0.931
   161   6 C    3.941 --   160 C    0.987   163 C    0.965   162 O    0.959
                           180 H    0.952
   162   8 O    2.071 --   166 C    0.979   161 C    0.959
   163   6 C    3.963 --   164 O    1.001   165 C    0.992   161 C    0.965
                           181 H    0.959
   164   8 O    1.924 --   163 C    1.001   182 H    0.853
   165   6 C    3.985 --   163 C    0.992   166 C    0.982   183 H    0.974
                           184 H    0.967
   166   6 C    3.927 --   165 C    0.982   162 O    0.979   185 H    0.953
                           167 N    0.945
   167   7 N    3.592 --   168 C    1.210   177 C    1.162   166 C    0.945
                           169 N    0.110
   168   6 C    3.950 --   169 N    1.601   167 N    1.210   186 H    0.958
   169   7 N    3.000 --   168 C    1.601   170 C    1.189   167 N    0.110
   170   6 C    3.960 --   177 C    1.348   169 N    1.189   171 C    1.135
   171   6 C    3.954 --   172 O    1.558   173 N    1.143   170 C    1.135
   172   8 O    1.950 --   171 C    1.558   173 N    0.134
   173   7 N    3.517 --   174 C    1.170   171 C    1.143   187 H    0.849
                           172 O    0.134
   174   6 C    3.968 --   176 N    1.361   175 N    1.345   173 N    1.170
   175   7 N    3.388 --   174 C    1.345   189 H    0.909   188 H    0.860
                           176 N    0.107
   176   7 N    2.959 --   174 C    1.361   177 C    1.238   175 N    0.107
   177   6 C    3.956 --   170 C    1.348   176 N    1.238   167 N    1.162
   178   1 H    0.996 --   160 C    0.968
   179   1 H    0.994 --   160 C    0.966
   180   1 H    0.992 --   161 C    0.952
   181   1 H    0.999 --   163 C    0.959
   182   1 H    0.866 --   164 O    0.853
   183   1 H    0.995 --   165 C    0.974
   184   1 H    0.990 --   165 C    0.967
   185   1 H    0.992 --   166 C    0.953
   186   1 H    0.997 --   168 C    0.958
   187   1 H    0.941 --   173 N    0.849
   188   1 H    0.935 --   175 N    0.860
   189   1 H    0.930 --   175 N    0.909
   190   8 O    1.937 --   191 C    1.007   217 H    0.861
   191   6 C    3.954 --   190 O    1.007   192 C    0.977   207 H    0.968
                           206 H    0.966
   192   6 C    3.941 --   191 C    0.977   194 C    0.971   193 O    0.959
                           208 H    0.956
   193   8 O    2.076 --   197 C    0.984   192 C    0.959
   194   6 C    3.927 --   196 C    0.987   192 C    0.971   209 H    0.944
                           195 O    0.940
   195   8 O    2.247 --   218 P    1.098   194 C    0.940
   196   6 C    3.988 --   194 C    0.987   197 C    0.984   210 H    0.968
                           211 H    0.967
   197   6 C    3.934 --   193 O    0.984   196 C    0.984   212 H    0.952
                           198 N    0.940
   198   7 N    3.571 --   205 C    1.198   199 C    1.090   197 C    0.940
                           200 O    0.111
   199   6 C    3.952 --   200 O    1.509   201 N    1.257   198 N    1.090
   200   8 O    1.911 --   199 C    1.509   201 N    0.120   198 N    0.111
   201   7 N    3.061 --   202 C    1.338   199 C    1.257   200 O    0.120
                           203 N    0.104
   202   6 C    3.965 --   203 N    1.375   201 N    1.338   204 C    1.158
   203   7 N    3.433 --   202 C    1.375   214 H    0.911   213 H    0.874
                           201 N    0.104
   204   6 C    3.976 --   205 C    1.652   202 C    1.158   215 H    0.957
   205   6 C    3.951 --   204 C    1.652   198 N    1.198   216 H    0.950
   206   1 H    0.992 --   191 C    0.966
   207   1 H    0.997 --   191 C    0.968
   208   1 H    0.996 --   192 C    0.956
   209   1 H    0.997 --   194 C    0.944
   210   1 H    0.995 --   196 C    0.968
   211   1 H    0.993 --   196 C    0.967
   212   1 H    0.993 --   197 C    0.952
   213   1 H    0.941 --   203 N    0.874
   214   1 H    0.934 --   203 N    0.911
   215   1 H    0.988 --   204 C    0.957
   216   1 H    0.988 --   205 C    0.950
   217   1 H    0.880 --   190 O    0.861
   218  15 P    5.414 --   219 O    1.782   220 O    1.375   195 O    1.098
                           221 O    1.094
   219   8 O    1.979 --   218 P    1.782
   220   8 O    2.291 --   218 P    1.375   383 H    0.755
   221   8 O    2.243 --   218 P    1.094   222 C    0.946
   222   6 C    3.925 --   223 C    0.983   241 H    0.966   240 H    0.965
                           221 O    0.946
   223   6 C    3.948 --   222 C    0.983   225 C    0.973   224 O    0.966
                           242 H    0.951
   224   8 O    2.072 --   228 C    0.971   223 C    0.966
   225   6 C    3.928 --   227 C    0.991   223 C    0.973   243 H    0.959
                           226 O    0.933
   226   8 O    2.242 --   251 P    1.095   225 C    0.933
   227   6 C    3.983 --   225 C    0.991   228 C    0.984   244 H    0.961
                           245 H    0.954
   228   6 C    3.930 --   227 C    0.984   224 O    0.971   246 H    0.954
                           229 N    0.954
   229   7 N    3.592 --   230 C    1.191   239 C    1.170   228 C    0.954
                           231 N    0.112
   230   6 C    3.939 --   231 N    1.608   229 N    1.191   247 H    0.946
   231   7 N    3.014 --   230 C    1.608   232 C    1.193   229 N    0.112
   232   6 C    3.963 --   239 C    1.352   231 N    1.193   233 C    1.130
   233   6 C    3.946 --   234 O    1.567   235 N    1.132   232 C    1.130
   234   8 O    1.971 --   233 C    1.567   235 N    0.132
   235   7 N    3.518 --   236 C    1.175   233 C    1.132   248 H    0.859
                           234 O    0.132
   236   6 C    3.965 --   238 N    1.368   237 N    1.328   235 N    1.175
   237   7 N    3.384 --   236 C    1.328   250 H    0.918   249 H    0.872
                           238 N    0.105
   238   7 N    2.959 --   236 C    1.368   239 C    1.232   237 N    0.105
   239   6 C    3.960 --   232 C    1.352   238 N    1.232   229 N    1.170
   240   1 H    0.994 --   222 C    0.965
   241   1 H    0.995 --   222 C    0.966
   242   1 H    0.990 --   223 C    0.951
   243   1 H    0.994 --   225 C    0.959
   244   1 H    0.989 --   227 C    0.961
   245   1 H    0.992 --   227 C    0.954
   246   1 H    0.994 --   228 C    0.954
   247   1 H    0.993 --   230 C    0.946
   248   1 H    0.946 --   235 N    0.859
   249   1 H    0.943 --   237 N    0.872
   250   1 H    0.939 --   237 N    0.918
   251  15 P    5.403 --   252 O    1.772   253 O    1.378   226 O    1.095
                           254 O    1.093
   252   8 O    1.976 --   251 P    1.772
   253   8 O    2.281 --   251 P    1.378   382 H    0.744
   254   8 O    2.244 --   251 P    1.093   255 C    0.950
   255   6 C    3.927 --   256 C    0.985   272 H    0.967   271 H    0.966
                           254 O    0.950
   256   6 C    3.948 --   255 C    0.985   258 C    0.969   257 O    0.965
                           273 H    0.952
   257   8 O    2.071 --   261 C    0.972   256 C    0.965
   258   6 C    3.923 --   260 C    0.992   256 C    0.969   274 H    0.960
                           259 O    0.927
   259   8 O    2.246 --   283 P    1.108   258 C    0.927
   260   6 C    3.979 --   258 C    0.992   261 C    0.983   276 H    0.959
                           275 H    0.956
   261   6 C    3.931 --   260 C    0.983   257 O    0.972   262 N    0.954
                           277 H    0.953
   262   7 N    3.580 --   270 C    1.156   263 C    1.129   261 C    0.954
                           264 O    0.132
   263   6 C    3.958 --   264 O    1.583   265 N    1.161   262 N    1.129
   264   8 O    1.925 --   263 C    1.583   262 N    0.132   265 N    0.129
   265   7 N    3.524 --   263 C    1.161   266 C    1.136   278 H    0.852
                           267 O    0.137   264 O    0.129
   266   6 C    3.934 --   267 O    1.617   265 N    1.136   268 C    1.083
   267   8 O    2.010 --   266 C    1.617   265 N    0.137
   268   6 C    3.976 --   270 C    1.649   266 C    1.083   269 C    1.021
   269   6 C    3.975 --   268 C    1.021   279 H    0.978   281 H    0.963
                           280 H    0.962
   270   6 C    3.941 --   268 C    1.649   262 N    1.156   282 H    0.938
   271   1 H    0.993 --   255 C    0.966
   272   1 H    0.995 --   255 C    0.967
   273   1 H    0.992 --   256 C    0.952
   274   1 H    0.994 --   258 C    0.960
   275   1 H    0.987 --   260 C    0.956
   276   1 H    0.992 --   260 C    0.959
   277   1 H    0.996 --   261 C    0.953
   278   1 H    0.945 --   265 N    0.852
   279   1 H    0.992 --   269 C    0.978
   280   1 H    0.987 --   269 C    0.962
   281   1 H    0.992 --   269 C    0.963
   282   1 H    0.985 --   270 C    0.938
   283  15 P    5.384 --   284 O    1.750   285 O    1.377   259 O    1.108
                           286 O    1.083
   284   8 O    1.964 --   283 P    1.750
   285   8 O    2.273 --   283 P    1.377   381 H    0.735
   286   8 O    2.239 --   283 P    1.083   287 C    0.951
   287   6 C    3.929 --   288 C    0.983   304 H    0.968   305 H    0.966
                           286 O    0.951
   288   6 C    3.947 --   287 C    0.983   290 C    0.971   289 O    0.965
                           306 H    0.951
   289   8 O    2.074 --   293 C    0.971   288 C    0.965
   290   6 C    3.926 --   292 C    0.992   288 C    0.971   307 H    0.959
                           291 O    0.931
   291   8 O    2.260 --   315 P    1.129   290 C    0.931
   292   6 C    3.985 --   290 C    0.992   293 C    0.982   309 H    0.964
                           308 H    0.963
   293   6 C    3.934 --   292 C    0.982   289 O    0.971   294 N    0.957
                           310 H    0.955
   294   7 N    3.600 --   295 C    1.209   303 C    1.166   293 C    0.957
                           296 N    0.111
   295   6 C    3.943 --   296 N    1.599   294 N    1.209   311 H    0.943
   296   7 N    3.001 --   295 C    1.599   297 C    1.182   294 N    0.111
   297   6 C    3.969 --   303 C    1.337   298 C    1.186   296 N    1.182
   298   6 C    3.975 --   299 N    1.364   300 N    1.290   297 C    1.186
   299   7 N    3.439 --   298 C    1.364   313 H    0.922   312 H    0.858
   300   7 N    3.080 --   301 C    1.403   298 C    1.290
   301   6 C    3.973 --   302 N    1.470   300 N    1.403   314 H    0.959
   302   7 N    3.000 --   301 C    1.470   303 C    1.246
   303   6 C    3.958 --   297 C    1.337   302 N    1.246   294 N    1.166
   304   1 H    0.995 --   287 C    0.968
   305   1 H    0.995 --   287 C    0.966
   306   1 H    0.991 --   288 C    0.951
   307   1 H    0.993 --   290 C    0.959
   308   1 H    0.990 --   292 C    0.963
   309   1 H    0.993 --   292 C    0.964
   310   1 H    0.996 --   293 C    0.955
   311   1 H    0.991 --   295 C    0.943
   312   1 H    0.932 --   299 N    0.858
   313   1 H    0.940 --   299 N    0.922
   314   1 H    0.999 --   301 C    0.959
   315  15 P    5.419 --   332 O    1.746   333 O    1.403   291 O    1.129
                           317 O    1.082
   316   6 C    3.927 --   318 C    0.988   337 H    0.964   336 H    0.963
                           317 O    0.953
   317   8 O    2.239 --   315 P    1.082   316 C    0.953
   318   6 C    3.938 --   316 C    0.988   320 C    0.961   319 O    0.960
                           338 H    0.951
   319   8 O    2.072 --   323 C    0.982   318 C    0.960
   320   6 C    3.929 --   318 C    0.961   321 O    0.957   339 H    0.952
                           322 C    0.946
   321   8 O    2.259 --   345 P    1.104   320 C    0.957
   322   6 C    3.843 --   320 C    0.946   335 F    0.941   334 F    0.939
                           323 C    0.938
   323   6 C    3.948 --   319 O    0.982   324 N    0.971   340 H    0.948
                           322 C    0.938
   324   7 N    3.553 --   331 C    1.182   325 C    1.072   323 C    0.971
                           326 O    0.107
   325   6 C    3.946 --   326 O    1.522   327 N    1.256   324 N    1.072
   326   8 O    1.920 --   325 C    1.522   327 N    0.122   324 N    0.107
   327   7 N    3.062 --   328 C    1.338   325 C    1.256   326 O    0.122
                           329 N    0.107
   328   6 C    3.971 --   329 N    1.391   327 N    1.338   330 C    1.151
   329   7 N    3.431 --   328 C    1.391   341 H    0.905   342 H    0.851
                           327 N    0.107
   330   6 C    3.969 --   331 C    1.659   328 C    1.151   343 H    0.952
   331   6 C    3.943 --   330 C    1.659   324 N    1.182   344 H    0.953
   332   8 O    1.958 --   315 P    1.746
   333   8 O    2.285 --   315 P    1.403   380 H    0.721
   334   9 F    1.050 --   322 C    0.939
   335   9 F    1.047 --   322 C    0.941
   336   1 H    0.990 --   316 C    0.963
   337   1 H    0.992 --   316 C    0.964
   338   1 H    0.992 --   318 C    0.951
   339   1 H    0.987 --   320 C    0.952
   340   1 H    0.993 --   323 C    0.948
   341   1 H    0.928 --   329 N    0.905
   342   1 H    0.929 --   329 N    0.851
   343   1 H    0.985 --   330 C    0.952
   344   1 H    0.991 --   331 C    0.953
   345  15 P    5.402 --   346 O    1.730   347 O    1.393   348 O    1.112
                           321 O    1.104
   346   8 O    1.946 --   345 P    1.730
   347   8 O    2.273 --   345 P    1.393   379 H    0.720
   348   8 O    2.250 --   345 P    1.112   349 C    0.938
   349   6 C    3.920 --   350 C    0.982   367 H    0.970   368 H    0.966
                           348 O    0.938
   350   6 C    3.942 --   349 C    0.982   352 C    0.967   351 O    0.965
                           369 H    0.951
   351   8 O    2.070 --   355 C    0.967   350 C    0.965
   352   6 C    3.961 --   353 O    1.001   354 C    0.987   350 C    0.967
                           370 H    0.961
   353   8 O    1.933 --   352 C    1.001   371 H    0.856
   354   6 C    3.987 --   352 C    0.987   355 C    0.984   373 H    0.969
                           372 H    0.969
   355   6 C    3.926 --   354 C    0.984   351 O    0.967   356 N    0.954
                           374 H    0.954
   356   7 N    3.592 --   357 C    1.198   366 C    1.168   355 C    0.954
                           358 N    0.108
   357   6 C    3.948 --   358 N    1.609   356 N    1.198   375 H    0.956
   358   7 N    3.009 --   357 C    1.609   359 C    1.191   356 N    0.108
   359   6 C    3.961 --   366 C    1.343   358 N    1.191   360 C    1.142
   360   6 C    3.953 --   361 O    1.546   362 N    1.144   359 C    1.142
   361   8 O    1.941 --   360 C    1.546   362 N    0.133
   362   7 N    3.519 --   363 C    1.174   360 C    1.144   376 H    0.844
                           361 O    0.133
   363   6 C    3.967 --   365 N    1.362   364 N    1.339   362 N    1.174
   364   7 N    3.384 --   363 C    1.339   378 H    0.909   377 H    0.867
                           365 N    0.107
   365   7 N    2.957 --   363 C    1.362   366 C    1.237   364 N    0.107
   366   6 C    3.957 --   359 C    1.343   365 N    1.237   356 N    1.168
   367   1 H    0.997 --   349 C    0.970
   368   1 H    0.995 --   349 C    0.966
   369   1 H    0.992 --   350 C    0.951
   370   1 H    0.995 --   352 C    0.961
   371   1 H    0.872 --   353 O    0.856
   372   1 H    0.995 --   354 C    0.969
   373   1 H    0.991 --   354 C    0.969
   374   1 H    0.993 --   355 C    0.954
   375   1 H    0.997 --   357 C    0.956
   376   1 H    0.940 --   362 N    0.844
   377   1 H    0.936 --   364 N    0.867
   378   1 H    0.929 --   364 N    0.909
   379   1 H    0.754 --   347 O    0.720
   380   1 H    0.755 --   333 O    0.721
   381   1 H    0.774 --   285 O    0.735
   382   1 H    0.786 --   253 O    0.744
   383   1 H    0.801 --   220 O    0.755
   384   1 H    0.750 --   158 O    0.716
   385   1 H    0.752 --   144 O    0.718
   386   1 H    0.756 --    96 O    0.723
   387   1 H    0.759 --    64 O    0.726
   388   1 H    0.794 --    31 O    0.740
 ---------------------------------------------------------------------------

Topologies differ in total number of bonds
Writing topology from bond orders to xtbtopo.mol

molecular dipole:
                 x           y           z       tot (Debye)
 q only:       -3.709     -10.718       1.885
   full:       -1.536      -8.742       1.400      22.840
molecular quadrupole (traceless):
                xx          xy          yy          xz          yz          zz
 q only:      121.440    -874.437    -845.949      26.774    -784.921     724.508
  q+dip:      235.426    -643.829    -750.476     143.841    -686.265     515.050
   full:      224.694    -642.741    -761.693     144.328    -678.614     536.998


           -------------------------------------------------
          | TOTAL ENERGY             -779.731974498594 Eh   |
          | GRADIENT NORM               0.457984712955 Eh/α |
          | HOMO-LUMO GAP               2.391529212688 eV   |
           -------------------------------------------------
########################################################################
[WARNING] Runtime exception occurred
-2- restart_readRestart: Dimension missmatch in restart file.
-1- restart_readRestart: Number of electron missmatch in restart file.
########################################################################

------------------------------------------------------------------------
 * finished run on 2023/03/09 at 13:52:13.590     
------------------------------------------------------------------------
 total:
 * wall-time:     0 d,  0 h,  0 min,  3.413 sec
 *  cpu-time:     0 d,  0 h,  0 min, 33.310 sec
 * ratio c/w:     9.759 speedup
 SCF:
 * wall-time:     0 d,  0 h,  0 min,  3.137 sec
 *  cpu-time:     0 d,  0 h,  0 min, 30.882 sec
 * ratio c/w:     9.845 speedup

