      -----------------------------------------------------------      
     |                   =====================                   |     
     |                           x T B                           |     
     |                   =====================                   |     
     |                         S. Grimme                         |     
     |          Mulliken Center for Theoretical Chemistry        |     
     |                    University of Bonn                     |     
      -----------------------------------------------------------      

   * xtb version 6.5.1 (579679a) compiled by 'ehlert@majestix' on 2022-07-11

   xtb is free software: you can redistribute it and/or modify it under
   the terms of the GNU Lesser General Public License as published by
   the Free Software Foundation, either version 3 of the License, or
   (at your option) any later version.
   
   xtb is distributed in the hope that it will be useful,
   but WITHOUT ANY WARRANTY; without even the implied warranty of
   MERCHANTABILITY or FITNESS FOR A PARTICULAR PURPOSE.  See the
   GNU Lesser General Public License for more details.
   
   Cite this work as:
   * C. Bannwarth, E. Caldeweyher, S. Ehlert, A. Hansen, P. Pracht,
     J. Seibert, S. Spicher, S. Grimme, WIREs Comput. Mol. Sci., 2020, 11,
     e01493. DOI: 10.1002/wcms.1493
   
   for GFN2-xTB:
   * C. Bannwarth, S. Ehlert and S. Grimme., J. Chem. Theory Comput., 2019,
     15, 1652-1671. DOI: 10.1021/acs.jctc.8b01176
   for GFN1-xTB:
   * S. Grimme, C. Bannwarth, P. Shushkov, J. Chem. Theory Comput., 2017,
     13, 1989-2009. DOI: 10.1021/acs.jctc.7b00118
   for GFN0-xTB:
   * P. Pracht, E. Caldeweyher, S. Ehlert, S. Grimme, ChemRxiv, 2019, preprint.
     DOI: 10.26434/chemrxiv.8326202.v1
   for GFN-FF:
   * S. Spicher and S. Grimme, Angew. Chem. Int. Ed., 2020, 59, 15665-15673.
     DOI: 10.1002/anie.202004239
   
   for ALPB and GBSA implicit solvation:
   * S. Ehlert, M. Stahn, S. Spicher, S. Grimme, J. Chem. Theory Comput.,
     2021, 17, 4250-4261. DOI: 10.1021/acs.jctc.1c00471
   
   for DFT-D4:
   * E. Caldeweyher, C. Bannwarth and S. Grimme, J. Chem. Phys., 2017,
     147, 034112. DOI: 10.1063/1.4993215
   * E. Caldeweyher, S. Ehlert, A. Hansen, H. Neugebauer, S. Spicher,
     C. Bannwarth and S. Grimme, J. Chem. Phys., 2019, 150, 154122.
     DOI: 10.1063/1.5090222
   * E. Caldeweyher, J.-M. Mewes, S. Ehlert and S. Grimme, Phys. Chem. Chem. Phys.
     2020, 22, 8499-8512. DOI: 10.1039/D0CP00502A
   
   for sTDA-xTB:
   * S. Grimme and C. Bannwarth, J. Chem. Phys., 2016, 145, 054103.
     DOI: 10.1063/1.4959605
   
   in the mass-spec context:
   * V. Asgeirsson, C. Bauer and S. Grimme, Chem. Sci., 2017, 8, 4879.
     DOI: 10.1039/c7sc00601b
   * J. Koopman and S. Grimme, ACS Omega 2019, 4, 12, 15120-15133.
     DOI: 10.1021/acsomega.9b02011
   
   for metadynamics refer to:
   * S. Grimme, J. Chem. Theory Comput., 2019, 155, 2847-2862
     DOI: 10.1021/acs.jctc.9b00143
   
   for SPH calculations refer to:
   * S. Spicher and S. Grimme, J. Chem. Theory Comput., 2021, 17, 1701-1714
     DOI: 10.1021/acs.jctc.0c01306
   
   with help from (in alphabetical order)
   P. Atkinson, C. Bannwarth, F. Bohle, G. Brandenburg, E. Caldeweyher
   M. Checinski, S. Dohm, S. Ehlert, S. Ehrlich, I. Gerasimov, C. Hölzer
   A. Katbashev, J. Koopman, C. Lavigne, S. Lehtola, F. März, M. Müller,
   F. Musil, H. Neugebauer, J. Pisarek, C. Plett, P. Pracht, F. Pultar,
   J. Seibert, P. Shushkov, S. Spicher, M. Stahn, M. Steiner, T. Strunk,
   J. Stückrath, T. Rose, and J. Unsleber
   
 * started run on 2023/04/12 at 14:26:18.293     

           -------------------------------------------------
          |                Calculation Setup                |
           -------------------------------------------------

          program call               : /N/u/schandy/BigRed3/bin/xtb-6.5.1/bin/xtb 6dm7_min.xyz --gbsa water
          hostname                   : nid00026
          coordinate file            : 6dm7_min.xyz
          omp threads                :                    10

   ID    Z sym.   atoms
    1    8 O      1, 4, 6, 14, 33-35, 38, 40, 48, 66-68, 71, 73, 81, 99-101,
                  104, 106, 114, 132-134, 137, 139, 144, 162-164, 167, 169,
                  177, 195-197, 200, 202, 210, 228-230, 233, 235, 243,
                  261-263, 266, 268, 276, 294, 297, 299, 304, 323-325, 328,
                  330, 335, 353-355, 358, 360, 365, 383-385, 388, 390, 395,
                  413-415, 418, 420, 428, 446-448, 451, 453, 458, 476-478,
                  481, 483, 488, 506-508, 511, 513, 518, 536-538, 541, 543,
                  548
    2    6 C      2, 3, 5, 7, 8, 10, 12, 13, 16, 19, 36, 37, 39, 41, 42, 44,
                  46, 47, 50, 53, 69, 70, 72, 74, 75, 77, 79, 80, 83, 86,
                  102, 103, 105, 107, 108, 110, 112, 113, 116, 119, 135, 136,
                  138, 140, 141, 143, 146, 148, 149, 165, 166, 168, 170, 171,
                  173, 175, 176, 179, 182, 198, 199, 201, 203, 204, 206, 208,
                  209, 212, 215, 231, 232, 234, 236, 237, 239, 241, 242, 245,
                  248, 264, 265, 267, 269, 270, 272, 274, 275, 278, 281, 295,
                  296, 298, 300, 301, 303, 306, 308, 309, 326, 327, 329, 331,
                  332, 334, 337, 339, 340, 356, 357, 359, 361, 362, 364, 367,
                  369, 370, 386, 387, 389, 391, 392, 394, 397, 399, 400, 416,
                  417, 419, 421, 422, 424, 426, 427, 430, 433, 449, 450, 452,
                  454, 455, 457, 460, 462, 463, 479, 480, 482, 484, 485, 487,
                  490, 492, 493, 509, 510, 512, 514, 515, 517, 520, 522, 523,
                  539, 540, 542, 544, 545, 547, 550, 552, 553
    3    7 N      9, 11, 15, 17, 18, 43, 45, 49, 51, 52, 76, 78, 82, 84, 85,
                  109, 111, 115, 117, 118, 142, 145, 147, 172, 174, 178, 180,
                  181, 205, 207, 211, 213, 214, 238, 240, 244, 246, 247, 271,
                  273, 277, 279, 280, 302, 305, 307, 333, 336, 338, 363, 366,
                  368, 393, 396, 398, 423, 425, 429, 431, 432, 456, 459, 461,
                  486, 489, 491, 516, 519, 521, 546, 549, 551
    4    1 H      20-31, 54-64, 87-97, 120-130, 150-160, 183-193, 216-226,
                  249-259, 282-293, 310-321, 341-351, 371-381, 401-411,
                  434-444, 464-474, 494-504, 524-534, 554-565
    5   15 P      32, 65, 98, 131, 161, 194, 227, 260, 322, 352, 382, 412,
                  445, 475, 505, 535

molecular fragmentation (1/2 indicates fragments):
111111111111111111111111111111111111111111111111111111111111111111111111
111111111111111111111111111111111111111111111111111111111111111111111111
111111111111111111111111111111111111111111111111111111111111111111111111
111111111111111111111111111111111111111111111111111111111111111111111111
111112222222222222222222222222222222222222222222222222222222222222222222
222222222222222222222222222222222222222222222222222222222222222222222222
222222222222222222222222222222222222222222222222222222222222222222222222
2222222222222222222222222222222222222222222222222222222222222
# atoms in fragment 1/2:   293   272
 fragment masses (1/2) :     2852.80     2572.64
CMA distance (Bohr)    :   6.351
constraining FC (au)   :  0.0500

           -------------------------------------------------
          |                 G F N 2 - x T B                 |
           -------------------------------------------------

        Reference                      10.1021/acs.jctc.8b01176
      * Hamiltonian:
        H0-scaling (s, p, d)           1.850000    2.230000    2.230000
        zeta-weighting                 0.500000
      * Dispersion:
        s8                             2.700000
        a1                             0.520000
        a2                             5.000000
        s9                             5.000000
      * Repulsion:
        kExp                           1.500000    1.000000
        rExp                           1.000000
      * Coulomb:
        alpha                          2.000000
        third order                    shell-resolved
        anisotropic                    true
        a3                             3.000000
        a5                             4.000000
        cn-shift                       1.200000
        cn-exp                         4.000000
        max-rad                        5.000000

      * Solvation model:               GBSA
        Solvent                        water
        Parameter file                 internal GFN2-xTB/GBSA
        Dielectric constant                8.0200E+01
        Reference state                gsolv [1 M gas/solution]
        Free energy shift                  1.8574E-03 Eh       1.1656E+00 kcal/mol
        Temperature                        2.9815E+02 K
        Density                            1.0000E+00 kg/L
        Solvent mass                       1.8000E+01 g/mol
        Interaction kernel             Still
        Born radius scaling (c1)           1.5524E+00
        Born radii integrator          GBOBC
        Born offset                        2.4628E-02 a0       4.6540E-02 AA
        H-bond correction              true
        Ion screening                  false
        Surface tension                    1.0000E-05 Eh       1.5569E+01 dyn/cm
        Grid points                               230 per atom
q/qsh data taken from xtbrestart
CAMM data taken from xtbrestart

          ...................................................
          :                      SETUP                      :
          :.................................................:
          :  # basis functions                1750          :
          :  # atomic orbitals                1734          :
          :  # shells                          944          :
          :  # electrons                      1950          :
          :  max. iterations                   250          :
          :  Hamiltonian                  GFN2-xTB          :
          :  restarted?                       true          :
          :  GBSA solvation                   true          :
          :  PC potential                    false          :
          :  electronic temp.          300.0000000     K    :
          :  accuracy                    1.0000000          :
          :  -> integral cutoff          0.2500000E+02      :
          :  -> integral neglect         0.1000000E-07      :
          :  -> SCF convergence          0.1000000E-05 Eh   :
          :  -> wf. convergence          0.1000000E-03 e    :
          :  Broyden damping             0.4000000          :
          ...................................................

 iter      E             dE          RMSdq      gap      omega  full diag
   1  -1155.6149130 -0.115561E+04  0.135E+00    0.00       0.0  T
   2  -1155.0390058  0.575907E+00  0.167E+00    0.08       1.0  T
   3  -1153.3957135  0.164329E+01  0.179E+00    0.04       1.0  T
   4  -1154.7410337 -0.134532E+01  0.151E+00    0.02       1.0  T
   5  -1155.8190353 -0.107800E+01  0.113E+00    0.01       1.0  T
   6  -1155.5136935  0.305342E+00  0.121E+00    0.01       1.0  T
   7  -1156.4987024 -0.985009E+00  0.898E-01    0.01       1.0  T
   8  -1156.6940613 -0.195359E+00  0.768E-01    0.00       1.0  T
   9  -1156.3379377  0.356124E+00  0.891E-01    0.01       1.0  T
  10  -1156.6840580 -0.346120E+00  0.723E-01    0.00       1.0  T
  11  -1156.6625015  0.215564E-01  0.696E-01    0.00       1.0  T
  12  -1156.8397690 -0.177267E+00  0.612E-01    0.00       1.0  T
  13  -1156.9890227 -0.149254E+00  0.485E-01    0.00       1.0  T
  14  -1157.0049700 -0.159473E-01  0.431E-01    0.00       1.0  T
  15  -1157.0696378 -0.646678E-01  0.372E-01    0.00       1.0  T
  16  -1156.9851936  0.844442E-01  0.456E-01    0.00       1.0  T
  17  -1157.0197742 -0.345806E-01  0.469E-01    0.00       1.0  T
  18  -1157.0342557 -0.144815E-01  0.441E-01    0.00       1.0  T
  19  -1157.1413630 -0.107107E+00  0.279E-01    0.00       1.0  T
  20  -1157.1090499  0.323131E-01  0.314E-01    0.01       1.0  T
  21  -1157.0809337  0.281162E-01  0.349E-01    0.01       1.0  T
  22  -1157.1380488 -0.571151E-01  0.269E-01    0.00       1.0  T
  23  -1157.1629539 -0.249051E-01  0.214E-01    0.00       1.0  T
  24  -1157.1505437  0.124102E-01  0.250E-01    0.00       1.0  T
  25  -1157.1834256 -0.328819E-01  0.148E-01    0.00       1.0  T
  26  -1157.1865064 -0.308081E-02  0.127E-01    0.00       1.0  T
  27  -1157.1836221  0.288427E-02  0.146E-01    0.00       1.0  T
  28  -1157.1630199  0.206022E-01  0.211E-01    0.00       1.0  T
  29  -1157.1743733 -0.113534E-01  0.172E-01    0.00       1.0  T
  30  -1157.1914516 -0.170783E-01  0.101E-01    0.00       1.0  T
  31  -1157.1901696  0.128202E-02  0.112E-01    0.00       1.0  T
  32  -1157.1908410 -0.671433E-03  0.110E-01    0.00       1.0  T
  33  -1157.1964300 -0.558898E-02  0.695E-02    0.00       1.0  T
  34  -1157.1988818 -0.245179E-02  0.446E-02    0.00       1.0  T
  35  -1157.1990697 -0.187994E-03  0.405E-02    0.00       1.0  T
  36  -1157.1992814 -0.211626E-03  0.346E-02    0.00       1.0  T
  37  -1157.1997948 -0.513452E-03  0.275E-02    0.00       1.0  T
  38  -1157.2000858 -0.290934E-03  0.194E-02    0.00       1.0  T
  39  -1157.2000686  0.171658E-04  0.178E-02    0.00       1.0  T
  40  -1157.2002787 -0.210141E-03  0.122E-02    0.00       1.0  T
  41  -1157.2002933 -0.145644E-04  0.117E-02    0.00       1.0  T
  42  -1157.2003287 -0.354119E-04  0.887E-03    0.00       1.0  T
  43  -1157.2003426 -0.138940E-04  0.802E-03    0.00       1.0  T
  44  -1157.2003550 -0.123798E-04  0.701E-03    0.00       1.0  T
  45  -1157.2003393  0.156571E-04  0.803E-03    0.00       1.0  T
  46  -1157.2003765 -0.371697E-04  0.511E-03    0.00       1.0  T
  47  -1157.2003838 -0.729502E-05  0.394E-03    0.00       1.1  T
  48  -1157.2003921 -0.835619E-05  0.279E-03    0.00       1.5  T
  49  -1157.2003942 -0.208683E-05  0.238E-03    0.00       1.8  T
  50  -1157.2003976 -0.336438E-05  0.152E-03    0.00       2.8  T
  51  -1157.2003965  0.104870E-05  0.180E-03    0.00       2.3  T
  52  -1157.2003952  0.130252E-05  0.209E-03    0.00       2.0  T
  53  -1157.2003967 -0.143049E-05  0.172E-03    0.00       2.4  T
  54  -1157.2003975 -0.855324E-06  0.146E-03    0.00       2.9  T
  55  -1157.2003981 -0.529988E-06  0.112E-03    0.00       3.8  T
  56  -1157.2003982 -0.136763E-06  0.114E-03    0.00       3.7  T
  57  -1157.2003985 -0.311390E-06  0.101E-03    0.00       4.1  T
  58  -1157.2003992 -0.640443E-06  0.580E-04    0.00       7.3  T
  59  -1157.2003990  0.179558E-06  0.774E-04    0.00       5.4  T

   *** convergence criteria satisfied after 59 iterations ***

         #    Occupation            Energy/Eh            Energy/eV
      -------------------------------------------------------------
         1        2.0000           -0.7691555             -20.9298
       ...           ...                  ...                  ...
       969        1.6533           -0.4367971             -11.8859
       970        1.6442           -0.4367672             -11.8850
       971        1.6210           -0.4366939             -11.8830
       972        1.5891           -0.4365981             -11.8804
       973        1.5333           -0.4364432             -11.8762
       974        1.5062           -0.4363726             -11.8743
       975        1.4880           -0.4363268             -11.8731 (HOMO)
       976        1.4370           -0.4362034             -11.8697 (LUMO)
       977        1.3893           -0.4360940             -11.8667
       978        1.3237           -0.4359512             -11.8628
       979        1.2601           -0.4358189             -11.8592
       980        1.1540           -0.4356080             -11.8535
       ...           ...                  ...                  ...
      1734                          1.2427876              33.8180
      -------------------------------------------------------------
                  HL-Gap            0.0001235 Eh            0.0034 eV
             Fermi-level           -0.4353131 Eh          -11.8455 eV

 SCC (total)                   0 d,  0 h,  0 min, 22.632 sec
 SCC setup                      ...        0 min,  0.047 sec (  0.206%)
 Dispersion                     ...        0 min,  0.131 sec (  0.579%)
 classical contributions        ...        0 min,  0.002 sec (  0.010%)
 integral evaluation            ...        0 min,  0.349 sec (  1.541%)
 iterations                     ...        0 min, 20.855 sec ( 92.149%)
 molecular gradient             ...        0 min,  1.202 sec (  5.309%)
 printout                       ...        0 min,  0.047 sec (  0.206%)

         :::::::::::::::::::::::::::::::::::::::::::::::::::::
         ::                     SUMMARY                     ::
         :::::::::::::::::::::::::::::::::::::::::::::::::::::
         :: total energy           -1146.209791310222 Eh    ::
         :: total w/o Gsasa/hb     -1146.094139868639 Eh    ::
         :: gradient norm              0.459926251951 Eh/a0 ::
         :: HOMO-LUMO gap              0.003360115699 eV    ::
         ::.................................................::
         :: SCC energy             -1157.200398971498 Eh    ::
         :: -> isotropic ES            4.971722957046 Eh    ::
         :: -> anisotropic ES         -0.605700823025 Eh    ::
         :: -> anisotropic XC          0.216134321455 Eh    ::
         :: -> dispersion             -0.962830936820 Eh    ::
         :: -> Gsolv                  -1.584518036339 Eh    ::
         ::    -> Gelec               -1.468866594756 Eh    ::
         ::    -> Gsasa               -0.005567732618 Eh    ::
         ::    -> Ghb                 -0.111941152091 Eh    ::
         ::    -> Gshift               0.001857443127 Eh    ::
         :: repulsion energy          10.909931222456 Eh    ::
         :: add. restraining           0.000000000000 Eh    ::
         :: total charge               0.000000000579 e     ::
         :::::::::::::::::::::::::::::::::::::::::::::::::::::

           -------------------------------------------------
          |                Property Printout                |
           -------------------------------------------------

    * Orbital Energies and Occupations

         #    Occupation            Energy/Eh            Energy/eV
      -------------------------------------------------------------
         1        2.0000           -0.7691555             -20.9298
       ...           ...                  ...                  ...
       963        1.7243           -0.4370547             -11.8929
       964        1.7233           -0.4370510             -11.8928
       965        1.7130           -0.4370104             -11.8917
       966        1.7010           -0.4369647             -11.8904
       967        1.6814           -0.4368934             -11.8885
       968        1.6617           -0.4368253             -11.8866
       969        1.6533           -0.4367971             -11.8859
       970        1.6442           -0.4367672             -11.8850
       971        1.6210           -0.4366939             -11.8830
       972        1.5891           -0.4365981             -11.8804
       973        1.5333           -0.4364432             -11.8762
       974        1.5062           -0.4363726             -11.8743
       975        1.4880           -0.4363268             -11.8731 (HOMO)
       976        1.4370           -0.4362034             -11.8697 (LUMO)
       977        1.3893           -0.4360940             -11.8667
       978        1.3237           -0.4359512             -11.8628
       979        1.2601           -0.4358189             -11.8592
       980        1.1540           -0.4356080             -11.8535
       981        1.0458           -0.4354002             -11.8478
       982        0.8831           -0.4350900             -11.8394
       983        0.8499           -0.4350258             -11.8377
       984                         -0.3032155              -8.2509
       985                         -0.3029663              -8.2441
       986                         -0.3023848              -8.2283
       ...                                ...                  ...
      1734                          1.2427876              33.8180
      -------------------------------------------------------------
                  HL-Gap            0.0001235 Eh            0.0034 eV
             Fermi-level           -0.4353131 Eh          -11.8455 eV

 * generalized Born model for continuum solvation

     #   Z     Born rad/Å   SASA/Å²    H-bond
     1   8 O        2.217    16.776    -0.002
     2   6 C        2.740     0.738    -0.000
     3   6 C        3.121     0.341    -0.000
     4   8 O        2.760    10.833    -0.001
     5   6 C        3.201     0.345    -0.000
     6   8 O        2.592     5.154    -0.001
     7   6 C        3.193     0.646    -0.000
     8   6 C        3.429     0.516    -0.000
     9   7 N        3.504     0.886    -0.000
    10   6 C        3.009     8.780    -0.000
    11   7 N        2.666    18.555    -0.006
    12   6 C        3.671     3.672    -0.000
    13   6 C        3.269     4.792    -0.000
    14   8 O        2.462    15.129    -0.002
    15   7 N        3.288     1.984    -0.001
    16   6 C        3.660     4.156    -0.000
    17   7 N        2.671     3.968    -0.001
    18   7 N        3.105     5.662    -0.002
    19   6 C        3.954     3.703    -0.000
    20   1 H        2.079    16.479    -0.022
    21   1 H        2.158     8.245    -0.011
    22   1 H        2.126    16.602    -0.022
    23   1 H        2.200     9.915    -0.013
    24   1 H        2.299     9.606    -0.013
    25   1 H        2.316     2.953    -0.004
    26   1 H        2.423     5.048    -0.007
    27   1 H        2.174    12.323    -0.016
    28   1 H        3.046     1.868    -0.002
    29   1 H        2.512     4.932    -0.007
    30   1 H        2.228    17.002    -0.023
    31   1 H        1.903    23.124    -0.031
    32  15 P        3.147    10.032    -0.001
    33   8 O        2.165    25.161    -0.003
    34   8 O        2.184    23.942    -0.003
    35   8 O        2.608     2.083    -0.000
    36   6 C        2.842     0.484    -0.000
    37   6 C        3.271     0.168    -0.000
    38   8 O        3.048     0.655    -0.000
    39   6 C        3.278     0.096    -0.000
    40   8 O        2.626     4.557    -0.001
    41   6 C        3.258     0.365    -0.000
    42   6 C        3.658     0.002    -0.000
    43   7 N        3.929    -0.019     0.000
    44   6 C        3.286     3.881    -0.000
    45   7 N        2.891    13.050    -0.004
    46   6 C        4.231     0.611    -0.000
    47   6 C        3.634     0.385    -0.000
    48   8 O        2.610     8.889    -0.001
    49   7 N        3.721     0.000    -0.000
    50   6 C        4.116     0.026    -0.000
    51   7 N        2.839     0.522    -0.000
    52   7 N        3.374     2.209    -0.001
    53   6 C        4.585     0.000    -0.000
    54   1 H        2.169    10.668    -0.014
    55   1 H        2.124    14.247    -0.019
    56   1 H        2.226    14.215    -0.019
    57   1 H        2.247     8.484    -0.011
    58   1 H        2.296    11.560    -0.015
    59   1 H        2.379     0.792    -0.001
    60   1 H        2.505     4.888    -0.007
    61   1 H        2.306     7.257    -0.010
    62   1 H        3.487     0.000    -0.000
    63   1 H        2.718     2.683    -0.004
    64   1 H        2.315    15.217    -0.020
    65  15 P        3.171     9.948    -0.001
    66   8 O        2.172    25.100    -0.003
    67   8 O        2.198    23.667    -0.003
    68   8 O        2.637     0.952    -0.000
    69   6 C        2.857     0.473    -0.000
    70   6 C        3.268     0.265    -0.000
    71   8 O        2.999     2.329    -0.000
    72   6 C        3.290     0.290    -0.000
    73   8 O        2.644     4.287    -0.001
    74   6 C        3.271     0.801    -0.000
    75   6 C        3.672     0.043    -0.000
    76   7 N        3.951     0.053    -0.000
    77   6 C        3.312     4.214    -0.000
    78   7 N        2.924    12.868    -0.004
    79   6 C        4.345     0.584    -0.000
    80   6 C        3.718     0.356    -0.000
    81   8 O        2.639     9.058    -0.001
    82   7 N        3.803     0.000    -0.000
    83   6 C        4.234     0.006    -0.000
    84   7 N        2.896     0.324    -0.000
    85   7 N        3.429     2.485    -0.001
    86   6 C        4.664     0.001    -0.000
    87   1 H        2.166    11.735    -0.016
    88   1 H        2.133    13.611    -0.018
    89   1 H        2.198    15.772    -0.021
    90   1 H        2.232     9.763    -0.013
    91   1 H        2.332     9.012    -0.012
    92   1 H        2.321     3.590    -0.005
    93   1 H        2.527     4.041    -0.005
    94   1 H        2.328     7.187    -0.010
    95   1 H        3.558     0.000    -0.000
    96   1 H        2.779     2.318    -0.003
    97   1 H        2.355    12.926    -0.017
    98  15 P        3.182     9.564    -0.001
    99   8 O        2.176    24.978    -0.003
   100   8 O        2.205    22.822    -0.003
   101   8 O        2.636     1.078    -0.000
   102   6 C        2.872     0.476    -0.000
   103   6 C        3.286     0.191    -0.000
   104   8 O        3.047     1.283    -0.000
   105   6 C        3.301     0.242    -0.000
   106   8 O        2.637     4.631    -0.001
   107   6 C        3.294     0.571    -0.000
   108   6 C        3.709     0.012    -0.000
   109   7 N        4.054     0.000    -0.000
   110   6 C        3.382     1.485    -0.000
   111   7 N        3.010     8.984    -0.003
   112   6 C        4.559     0.011    -0.000
   113   6 C        3.831     0.004    -0.000
   114   8 O        2.696     7.027    -0.001
   115   7 N        3.810     0.000    -0.000
   116   6 C        4.190     0.010    -0.000
   117   7 N        2.848     0.562    -0.000
   118   7 N        3.446     2.347    -0.001
   119   6 C        4.809     0.000     0.000
   120   1 H        2.178    11.314    -0.015
   121   1 H        2.146    13.194    -0.018
   122   1 H        2.211    15.507    -0.021
   123   1 H        2.252     8.565    -0.011
   124   1 H        2.334     9.177    -0.012
   125   1 H        2.377     1.821    -0.002
   126   1 H        2.525     5.180    -0.007
   127   1 H        2.332     6.836    -0.009
   128   1 H        3.536     0.000    -0.000
   129   1 H        2.722     2.799    -0.004
   130   1 H        2.324    14.427    -0.019
   131  15 P        3.171    10.047    -0.001
   132   8 O        2.172    25.167    -0.003
   133   8 O        2.194    23.914    -0.003
   134   8 O        2.623     2.319    -0.000
   135   6 C        2.861     0.492    -0.000
   136   6 C        3.314     0.193    -0.000
   137   8 O        3.125     0.921    -0.000
   138   6 C        3.313     0.054    -0.000
   139   8 O        2.625     4.502    -0.001
   140   6 C        3.357     0.005    -0.000
   141   6 C        3.749     0.001    -0.000
   142   7 N        3.859     0.000     0.000
   143   6 C        3.863     0.000    -0.000
   144   8 O        2.890     3.003    -0.000
   145   7 N        3.744     0.000    -0.000
   146   6 C        3.851     0.744    -0.000
   147   7 N        2.700     1.856    -0.001
   148   6 C        3.363     3.670    -0.000
   149   6 C        3.415     1.748    -0.000
   150   1 H        2.182    11.320    -0.015
   151   1 H        2.129    14.497    -0.019
   152   1 H        2.248    14.098    -0.019
   153   1 H        2.277     8.020    -0.011
   154   1 H        2.382     6.798    -0.009
   155   1 H        2.481     0.025    -0.000
   156   1 H        2.503     6.435    -0.009
   157   1 H        2.601     2.587    -0.003
   158   1 H        2.233    18.298    -0.024
   159   1 H        2.184    14.352    -0.019
   160   1 H        2.338     6.422    -0.009
   161  15 P        3.174    10.322    -0.001
   162   8 O        2.171    25.384    -0.003
   163   8 O        2.198    23.709    -0.003
   164   8 O        2.639     1.450    -0.000
   165   6 C        2.860     0.470    -0.000
   166   6 C        3.256     0.215    -0.000
   167   8 O        2.975     5.873    -0.001
   168   6 C        3.273     0.277    -0.000
   169   8 O        2.632     4.477    -0.001
   170   6 C        3.262     0.661    -0.000
   171   6 C        3.633     0.467    -0.000
   172   7 N        3.893     0.035    -0.000
   173   6 C        3.315     3.498    -0.000
   174   7 N        2.940    11.369    -0.003
   175   6 C        4.364     0.264    -0.000
   176   6 C        3.790     0.326    -0.000
   177   8 O        2.691     7.212    -0.001
   178   7 N        3.891     0.000     0.000
   179   6 C        4.311     0.001    -0.000
   180   7 N        2.903     0.695    -0.000
   181   7 N        3.430     2.507    -0.001
   182   6 C        4.597     0.068    -0.000
   183   1 H        2.175    12.295    -0.016
   184   1 H        2.126    14.088    -0.019
   185   1 H        2.194    15.818    -0.021
   186   1 H        2.228     9.800    -0.013
   187   1 H        2.328     9.433    -0.013
   188   1 H        2.332     2.999    -0.004
   189   1 H        2.507     4.986    -0.007
   190   1 H        2.343     6.878    -0.009
   191   1 H        3.620     0.000     0.000
   192   1 H        2.791     2.667    -0.004
   193   1 H        2.346    16.032    -0.021
   194  15 P        3.172     9.880    -0.001
   195   8 O        2.172    25.121    -0.003
   196   8 O        2.197    23.342    -0.003
   197   8 O        2.623     1.671    -0.000
   198   6 C        2.862     0.471    -0.000
   199   6 C        3.289     0.228    -0.000
   200   8 O        3.062     1.142    -0.000
   201   6 C        3.290     0.197    -0.000
   202   8 O        2.638     4.429    -0.001
   203   6 C        3.272     0.527    -0.000
   204   6 C        3.703     0.004    -0.000
   205   7 N        4.017     0.067    -0.000
   206   6 C        3.343     4.022    -0.000
   207   7 N        2.936    12.732    -0.004
   208   6 C        4.342     0.709    -0.000
   209   6 C        3.681     0.607    -0.000
   210   8 O        2.615    10.185    -0.001
   211   7 N        3.810     0.000     0.000
   212   6 C        4.302     0.002    -0.000
   213   7 N        2.943     0.289    -0.000
   214   7 N        3.473     2.054    -0.001
   215   6 C        4.733     0.000    -0.000
   216   1 H        2.180    11.085    -0.015
   217   1 H        2.136    13.804    -0.018
   218   1 H        2.223    14.955    -0.020
   219   1 H        2.241     9.132    -0.012
   220   1 H        2.309    11.115    -0.015
   221   1 H        2.358     1.931    -0.003
   222   1 H        2.527     4.607    -0.006
   223   1 H        2.331     6.714    -0.009
   224   1 H        3.559     0.000    -0.000
   225   1 H        2.831     1.311    -0.002
   226   1 H        2.393    10.841    -0.014
   227  15 P        3.178     9.741    -0.001
   228   8 O        2.174    24.966    -0.003
   229   8 O        2.200    23.149    -0.003
   230   8 O        2.634     1.007    -0.000
   231   6 C        2.866     0.462    -0.000
   232   6 C        3.273     0.216    -0.000
   233   8 O        3.032     1.604    -0.000
   234   6 C        3.271     0.284    -0.000
   235   8 O        2.597     6.071    -0.001
   236   6 C        3.245     0.697    -0.000
   237   6 C        3.657     0.007    -0.000
   238   7 N        3.957     0.027    -0.000
   239   6 C        3.352     3.813    -0.000
   240   7 N        2.959    11.708    -0.004
   241   6 C        4.347     0.205    -0.000
   242   6 C        3.703     0.256    -0.000
   243   8 O        2.640     7.861    -0.001
   244   7 N        3.752     0.000     0.000
   245   6 C        4.118     0.006    -0.000
   246   7 N        2.836     0.359    -0.000
   247   7 N        3.348     2.994    -0.001
   248   6 C        4.603     0.001    -0.000
   249   1 H        2.179    11.131    -0.015
   250   1 H        2.142    13.247    -0.018
   251   1 H        2.206    15.504    -0.021
   252   1 H        2.227     9.897    -0.013
   253   1 H        2.310    10.172    -0.014
   254   1 H        2.320     2.197    -0.003
   255   1 H        2.488     7.672    -0.010
   256   1 H        2.353     5.666    -0.008
   257   1 H        3.503     0.000     0.000
   258   1 H        2.712     2.517    -0.003
   259   1 H        2.312    14.529    -0.019
   260  15 P        3.158     8.962    -0.001
   261   8 O        2.153    27.939    -0.004
   262   8 O        2.217    20.170    -0.003
   263   8 O        2.580     4.194    -0.001
   264   6 C        2.830     0.378    -0.000
   265   6 C        3.195     0.223    -0.000
   266   8 O        2.971     1.538    -0.000
   267   6 C        3.108     0.520    -0.000
   268   8 O        2.293    14.071    -0.002
   269   6 C        3.082     1.304    -0.000
   270   6 C        3.506     0.007    -0.000
   271   7 N        3.732     0.176    -0.000
   272   6 C        3.202     4.187    -0.000
   273   7 N        2.821    13.339    -0.004
   274   6 C        3.890     3.296    -0.000
   275   6 C        3.309     4.295    -0.000
   276   8 O        2.461    14.856    -0.002
   277   7 N        3.270     1.910    -0.001
   278   6 C        3.640     3.843    -0.000
   279   7 N        2.678     3.619    -0.001
   280   7 N        3.093     6.451    -0.002
   281   6 C        4.145     2.697    -0.000
   282   1 H        2.118    14.152    -0.019
   283   1 H        2.180     8.543    -0.011
   284   1 H        2.169    16.093    -0.022
   285   1 H        2.154    13.690    -0.018
   286   1 H        1.946    20.083    -0.027
   287   1 H        2.228    12.024    -0.016
   288   1 H        2.166    14.962    -0.020
   289   1 H        2.416     8.053    -0.011
   290   1 H        2.263     8.805    -0.012
   291   1 H        2.993     2.459    -0.003
   292   1 H        2.539     3.343    -0.004
   293   1 H        2.230    16.941    -0.023
   294   8 O        2.282     6.662    -0.001
   295   6 C        2.723     0.820    -0.000
   296   6 C        3.120     0.327    -0.000
   297   8 O        2.777     9.420    -0.001
   298   6 C        3.216     0.272    -0.000
   299   8 O        2.591     5.223    -0.001
   300   6 C        3.251     0.369    -0.000
   301   6 C        3.419     0.677    -0.000
   302   7 N        3.365     1.066    -0.000
   303   6 C        3.315     4.544    -0.000
   304   8 O        2.602     8.449    -0.001
   305   7 N        3.198     3.121    -0.001
   306   6 C        3.394     3.613    -0.000
   307   7 N        2.546     4.108    -0.001
   308   6 C        3.053     5.916    -0.000
   309   6 C        3.092     5.040    -0.000
   310   1 H        2.058    18.562    -0.025
   311   1 H        2.073    17.206    -0.023
   312   1 H        2.142    16.186    -0.022
   313   1 H        2.234     8.155    -0.011
   314   1 H        2.342     6.327    -0.008
   315   1 H        2.432     0.100    -0.000
   316   1 H        2.345     8.438    -0.011
   317   1 H        2.406     5.503    -0.007
   318   1 H        2.145    19.338    -0.026
   319   1 H        2.082    18.295    -0.024
   320   1 H        2.209     8.359    -0.011
   321   1 H        1.919    23.043    -0.031
   322  15 P        3.153    10.193    -0.001
   323   8 O        2.167    24.996    -0.003
   324   8 O        2.188    24.185    -0.003
   325   8 O        2.624     1.103    -0.000
   326   6 C        2.844     0.457    -0.000
   327   6 C        3.244     0.222    -0.000
   328   8 O        2.999     1.897    -0.000
   329   6 C        3.259     0.304    -0.000
   330   8 O        2.593     5.920    -0.001
   331   6 C        3.243     0.680    -0.000
   332   6 C        3.638     0.008    -0.000
   333   7 N        3.667     0.001    -0.000
   334   6 C        3.715     0.000    -0.000
   335   8 O        2.836     2.899    -0.000
   336   7 N        3.673     0.000    -0.000
   337   6 C        3.885     0.000    -0.000
   338   7 N        2.754     0.259    -0.000
   339   6 C        3.383     0.558    -0.000
   340   6 C        3.369     1.168    -0.000
   341   1 H        2.161    10.814    -0.014
   342   1 H        2.125    13.685    -0.018
   343   1 H        2.190    15.566    -0.021
   344   1 H        2.219     9.962    -0.013
   345   1 H        2.322     9.421    -0.013
   346   1 H        2.334     2.021    -0.003
   347   1 H        2.478     5.689    -0.008
   348   1 H        2.609     2.680    -0.004
   349   1 H        2.291    11.476    -0.015
   350   1 H        2.212    10.694    -0.014
   351   1 H        2.363     5.160    -0.007
   352  15 P        3.155     9.133    -0.001
   353   8 O        2.150    28.427    -0.004
   354   8 O        2.217    20.179    -0.003
   355   8 O        2.586     4.604    -0.001
   356   6 C        2.843     0.379    -0.000
   357   6 C        3.283     0.102    -0.000
   358   8 O        3.056     1.184    -0.000
   359   6 C        3.287     0.022    -0.000
   360   8 O        2.620     5.033    -0.001
   361   6 C        3.286     0.437    -0.000
   362   6 C        3.694     0.004    -0.000
   363   7 N        3.758    -0.000     0.000
   364   6 C        3.812     0.000     0.000
   365   8 O        2.926     2.190    -0.000
   366   7 N        3.712     0.000    -0.000
   367   6 C        3.871     0.024    -0.000
   368   7 N        2.726     0.481    -0.000
   369   6 C        3.376     2.302    -0.000
   370   6 C        3.363     1.487    -0.000
   371   1 H        2.122    15.289    -0.020
   372   1 H        2.190     9.277    -0.012
   373   1 H        2.228    14.442    -0.019
   374   1 H        2.259     7.928    -0.011
   375   1 H        2.317     9.930    -0.013
   376   1 H        2.413     0.183    -0.000
   377   1 H        2.506     4.520    -0.006
   378   1 H        2.592     3.349    -0.004
   379   1 H        2.259    14.670    -0.020
   380   1 H        2.201    12.925    -0.017
   381   1 H        2.297     7.630    -0.010
   382  15 P        3.166    10.216    -0.001
   383   8 O        2.174    24.907    -0.003
   384   8 O        2.190    24.342    -0.003
   385   8 O        2.622     2.375    -0.000
   386   6 C        2.859     0.493    -0.000
   387   6 C        3.306     0.180    -0.000
   388   8 O        3.081     1.856    -0.000
   389   6 C        3.313     0.052    -0.000
   390   8 O        2.627     4.715    -0.001
   391   6 C        3.335     0.064    -0.000
   392   6 C        3.718     0.001    -0.000
   393   7 N        3.801     0.000     0.000
   394   6 C        3.847     0.000    -0.000
   395   8 O        2.893     3.255    -0.000
   396   7 N        3.753     0.000     0.000
   397   6 C        3.886     0.790    -0.000
   398   7 N        2.745     1.289    -0.000
   399   6 C        3.397     3.799    -0.000
   400   6 C        3.398     1.893    -0.000
   401   1 H        2.174    12.496    -0.017
   402   1 H        2.134    14.107    -0.019
   403   1 H        2.247    14.187    -0.019
   404   1 H        2.285     7.455    -0.010
   405   1 H        2.366     7.633    -0.010
   406   1 H        2.454     0.050    -0.000
   407   1 H        2.494     6.606    -0.009
   408   1 H        2.641     1.970    -0.003
   409   1 H        2.290    14.218    -0.019
   410   1 H        2.217    11.768    -0.016
   411   1 H        2.341     5.773    -0.008
   412  15 P        3.175    10.292    -0.001
   413   8 O        2.173    25.165    -0.003
   414   8 O        2.198    24.079    -0.003
   415   8 O        2.641     1.370    -0.000
   416   6 C        2.861     0.479    -0.000
   417   6 C        3.273     0.242    -0.000
   418   8 O        2.987     5.924    -0.001
   419   6 C        3.293     0.266    -0.000
   420   8 O        2.661     3.367    -0.000
   421   6 C        3.298     0.483    -0.000
   422   6 C        3.674     0.355    -0.000
   423   7 N        3.952     0.024    -0.000
   424   6 C        3.338     2.220    -0.000
   425   7 N        2.970     9.556    -0.003
   426   6 C        4.461     0.035    -0.000
   427   6 C        3.818     0.079    -0.000
   428   8 O        2.690     7.380    -0.001
   429   7 N        3.860     0.000    -0.000
   430   6 C        4.307     0.005    -0.000
   431   7 N        2.893     0.589    -0.000
   432   7 N        3.457     2.613    -0.001
   433   6 C        4.691     0.086    -0.000
   434   1 H        2.171    12.664    -0.017
   435   1 H        2.128    14.120    -0.019
   436   1 H        2.202    15.557    -0.021
   437   1 H        2.232    10.143    -0.014
   438   1 H        2.340     8.807    -0.012
   439   1 H        2.390     1.810    -0.002
   440   1 H        2.527     5.111    -0.007
   441   1 H        2.339     7.467    -0.010
   442   1 H        3.558     0.000    -0.000
   443   1 H        2.766     2.680    -0.004
   444   1 H        2.347    15.525    -0.021
   445  15 P        3.192     9.164    -0.001
   446   8 O        2.176    25.222    -0.003
   447   8 O        2.217    21.798    -0.003
   448   8 O        2.651     1.042    -0.000
   449   6 C        2.868     0.452    -0.000
   450   6 C        3.254     0.266    -0.000
   451   8 O        2.975     4.911    -0.001
   452   6 C        3.286     0.226    -0.000
   453   8 O        2.624     4.707    -0.001
   454   6 C        3.316     0.539    -0.000
   455   6 C        3.671     0.063    -0.000
   456   7 N        3.809     0.000     0.000
   457   6 C        3.832     0.000    -0.000
   458   8 O        2.871     2.998    -0.000
   459   7 N        3.828     0.000    -0.000
   460   6 C        4.055     0.001    -0.000
   461   7 N        2.790     0.590    -0.000
   462   6 C        3.495     1.543    -0.000
   463   6 C        3.480     0.850    -0.000
   464   1 H        2.170    12.121    -0.016
   465   1 H        2.139    13.397    -0.018
   466   1 H        2.188    15.983    -0.021
   467   1 H        2.252     8.542    -0.011
   468   1 H        2.372     8.172    -0.011
   469   1 H        2.424     1.009    -0.001
   470   1 H        2.465     6.380    -0.009
   471   1 H        2.658     2.721    -0.004
   472   1 H        2.299    14.700    -0.020
   473   1 H        2.256    10.386    -0.014
   474   1 H        2.420     2.461    -0.003
   475  15 P        3.163    10.215    -0.001
   476   8 O        2.170    25.257    -0.003
   477   8 O        2.190    24.047    -0.003
   478   8 O        2.615     2.531    -0.000
   479   6 C        2.850     0.495    -0.000
   480   6 C        3.300     0.122    -0.000
   481   8 O        3.104     1.713    -0.000
   482   6 C        3.301     0.075    -0.000
   483   8 O        2.576     6.495    -0.001
   484   6 C        3.348     0.015    -0.000
   485   6 C        3.706     0.013    -0.000
   486   7 N        3.828     0.000     0.000
   487   6 C        3.837     0.000    -0.000
   488   8 O        2.908     2.785    -0.000
   489   7 N        3.768     0.000    -0.000
   490   6 C        3.982     0.000    -0.000
   491   7 N        2.760     0.484    -0.000
   492   6 C        3.435     1.076    -0.000
   493   6 C        3.438     0.855    -0.000
   494   1 H        2.175    11.588    -0.015
   495   1 H        2.123    14.471    -0.019
   496   1 H        2.241    14.565    -0.019
   497   1 H        2.276     8.639    -0.012
   498   1 H        2.430     2.892    -0.004
   499   1 H        2.414     3.435    -0.005
   500   1 H        2.480     6.479    -0.009
   501   1 H        2.608     2.907    -0.004
   502   1 H        2.278    14.665    -0.020
   503   1 H        2.210    12.691    -0.017
   504   1 H        2.365     6.257    -0.008
   505  15 P        3.163     9.750    -0.001
   506   8 O        2.150    28.379    -0.004
   507   8 O        2.231    19.298    -0.003
   508   8 O        2.600     4.821    -0.001
   509   6 C        2.879     0.477    -0.000
   510   6 C        3.276     0.295    -0.000
   511   8 O        3.013     4.268    -0.001
   512   6 C        3.311     0.232    -0.000
   513   8 O        2.608     5.489    -0.001
   514   6 C        3.340     0.000     0.000
   515   6 C        3.647     0.131    -0.000
   516   7 N        3.749     0.001    -0.000
   517   6 C        3.742     0.000    -0.000
   518   8 O        2.845     3.590    -0.000
   519   7 N        3.696     0.001    -0.000
   520   6 C        3.917     0.001    -0.000
   521   7 N        2.761     0.275    -0.000
   522   6 C        3.384     1.105    -0.000
   523   6 C        3.403     0.928    -0.000
   524   1 H        2.131    14.872    -0.020
   525   1 H        2.254     5.723    -0.008
   526   1 H        2.185    15.998    -0.021
   527   1 H        2.275     6.697    -0.009
   528   1 H        2.389     5.830    -0.008
   529   1 H        2.436     1.197    -0.002
   530   1 H        2.424     8.774    -0.012
   531   1 H        2.617     2.493    -0.003
   532   1 H        2.279    12.915    -0.017
   533   1 H        2.197    13.325    -0.018
   534   1 H        2.377     3.745    -0.005
   535  15 P        3.137    11.604    -0.001
   536   8 O        2.145    28.782    -0.004
   537   8 O        2.205    20.937    -0.003
   538   8 O        2.536     7.263    -0.001
   539   6 C        2.847     0.359    -0.000
   540   6 C        3.208     0.154    -0.000
   541   8 O        2.942     5.156    -0.001
   542   6 C        3.136     0.107    -0.000
   543   8 O        2.271    13.968    -0.002
   544   6 C        3.061     0.802    -0.000
   545   6 C        3.418     0.323    -0.000
   546   7 N        3.496     0.023    -0.000
   547   6 C        3.411     2.674    -0.000
   548   8 O        2.631     8.157    -0.001
   549   7 N        3.329     2.027    -0.001
   550   6 C        3.603     3.333    -0.000
   551   7 N        2.637     3.700    -0.001
   552   6 C        3.280     4.264    -0.000
   553   6 C        3.281     2.257    -0.000
   554   1 H        2.119    14.087    -0.019
   555   1 H        2.263     4.951    -0.007
   556   1 H        2.185    15.060    -0.020
   557   1 H        2.226    10.441    -0.014
   558   1 H        1.935    21.242    -0.028
   559   1 H        2.206    14.348    -0.019
   560   1 H        2.159    15.736    -0.021
   561   1 H        2.310    11.350    -0.015
   562   1 H        2.475     3.964    -0.005
   563   1 H        2.236    14.028    -0.019
   564   1 H        2.194    11.639    -0.016
   565   1 H        2.335     3.717    -0.005

 total SASA / Å² :     3503.385

     #   Z          covCN         q      C6AA      α(0)
     1   8 O        1.654    -0.424    21.326     6.234
     2   6 C        3.673     0.055    19.889     6.391
     3   6 C        3.783     0.088    19.140     6.232
     4   8 O        1.699    -0.253    18.192     5.759
     5   6 C        3.924     0.111    18.712     6.148
     6   8 O        1.656    -0.322    19.402     5.946
     7   6 C        3.825    -0.104    22.462     6.744
     8   6 C        3.717     0.151    18.259     6.104
     9   7 N        2.819    -0.012    21.484     6.884
    10   6 C        3.141     0.117    25.200     8.215
    11   7 N        1.869    -0.147    24.977     7.408
    12   6 C        3.195     0.040    26.600     8.409
    13   6 C        2.772     0.281    22.247     7.725
    14   8 O        0.860    -0.366    21.020     6.147
    15   7 N        2.714    -0.157    24.404     7.337
    16   6 C        2.837     0.233    23.120     7.880
    17   7 N        2.668    -0.193    25.199     7.455
    18   7 N        1.847    -0.225    26.756     7.666
    19   6 C        3.089     0.132    25.010     8.197
    20   1 H        0.925     0.094     1.843     2.123
    21   1 H        0.925     0.093     1.855     2.130
    22   1 H        0.924     0.103     1.758     2.074
    23   1 H        0.924     0.076     2.019     2.222
    24   1 H        0.924     0.112     1.678     2.026
    25   1 H        0.925     0.103     1.757     2.073
    26   1 H        0.924     0.129     1.543     1.942
    27   1 H        0.926     0.138     1.472     1.898
    28   1 H        0.860     0.272     0.802     1.403
    29   1 H        0.860     0.293     0.736     1.344
    30   1 H        0.860     0.290     0.742     1.350
    31   1 H        0.805     0.380     0.524     1.137
    32  15 P        3.615     0.585   136.783    21.009
    33   8 O        0.808    -0.524    24.349     6.614
    34   8 O        0.808    -0.508    23.998     6.567
    35   8 O        1.656    -0.316    19.297     5.930
    36   6 C        3.879     0.074    19.296     6.246
    37   6 C        3.808     0.085    19.166     6.232
    38   8 O        1.702    -0.276    18.585     5.820
    39   6 C        3.918     0.117    18.620     6.133
    40   8 O        1.657    -0.330    19.536     5.967
    41   6 C        3.818    -0.097    22.332     6.726
    42   6 C        3.749     0.147    18.279     6.098
    43   7 N        2.820    -0.020    21.638     6.909
    44   6 C        3.137     0.109    25.391     8.247
    45   7 N        1.871    -0.160    25.269     7.451
    46   6 C        3.190     0.021    27.060     8.485
    47   6 C        2.771     0.272    22.396     7.751
    48   8 O        0.860    -0.353    20.765     6.110
    49   7 N        2.715    -0.163    24.515     7.354
    50   6 C        2.839     0.223    23.310     7.912
    51   7 N        2.669    -0.198    25.295     7.470
    52   7 N        1.848    -0.230    26.869     7.682
    53   6 C        3.094     0.113    25.397     8.260
    54   1 H        0.924     0.085     1.927     2.171
    55   1 H        0.924     0.055     2.253     2.347
    56   1 H        0.924     0.091     1.866     2.136
    57   1 H        0.924     0.057     2.236     2.338
    58   1 H        0.924     0.103     1.759     2.074
    59   1 H        0.925     0.093     1.852     2.128
    60   1 H        0.924     0.115     1.656     2.012
    61   1 H        0.926     0.126     1.566     1.957
    62   1 H        0.860     0.263     0.834     1.430
    63   1 H        0.860     0.278     0.783     1.386
    64   1 H        0.860     0.287     0.754     1.360
    65  15 P        3.611     0.586   136.761    21.007
    66   8 O        0.808    -0.526    24.386     6.620
    67   8 O        0.808    -0.508    24.000     6.567
    68   8 O        1.656    -0.310    19.182     5.912
    69   6 C        3.878     0.069    19.375     6.258
    70   6 C        3.798     0.082    19.229     6.244
    71   8 O        1.701    -0.260    18.309     5.777
    72   6 C        3.924     0.118    18.597     6.129
    73   8 O        1.657    -0.330    19.538     5.967
    74   6 C        3.825    -0.095    22.294     6.719
    75   6 C        3.743     0.149    18.250     6.095
    76   7 N        2.822    -0.018    21.605     6.903
    77   6 C        3.149     0.109    25.342     8.235
    78   7 N        1.870    -0.152    25.085     7.424
    79   6 C        3.201     0.019    27.031     8.472
    80   6 C        2.772     0.271    22.420     7.755
    81   8 O        0.860    -0.341    20.542     6.077
    82   7 N        2.715    -0.160    24.467     7.346
    83   6 C        2.840     0.225    23.274     7.906
    84   7 N        2.669    -0.199    25.334     7.475
    85   7 N        1.848    -0.233    26.959     7.695
    86   6 C        3.098     0.115    25.359     8.253
    87   1 H        0.924     0.098     1.803     2.100
    88   1 H        0.924     0.060     2.199     2.319
    89   1 H        0.924     0.103     1.761     2.075
    90   1 H        0.924     0.055     2.253     2.347
    91   1 H        0.924     0.105     1.739     2.062
    92   1 H        0.925     0.093     1.851     2.127
    93   1 H        0.924     0.113     1.670     2.021
    94   1 H        0.926     0.124     1.581     1.966
    95   1 H        0.860     0.266     0.825     1.423
    96   1 H        0.860     0.275     0.791     1.393
    97   1 H        0.860     0.272     0.801     1.402
    98  15 P        3.613     0.582   136.885    21.017
    99   8 O        0.808    -0.533    24.564     6.644
   100   8 O        0.808    -0.508    23.991     6.566
   101   8 O        1.656    -0.313    19.238     5.921
   102   6 C        3.882     0.072    19.330     6.251
   103   6 C        3.794     0.085    19.179     6.236
   104   8 O        1.701    -0.273    18.532     5.812
   105   6 C        3.918     0.120    18.566     6.124
   106   8 O        1.656    -0.337    19.661     5.986
   107   6 C        3.820    -0.095    22.300     6.720
   108   6 C        3.735     0.151    18.230     6.094
   109   7 N        2.819    -0.027    21.763     6.929
   110   6 C        3.140     0.103    25.492     8.263
   111   7 N        1.870    -0.162    25.310     7.457
   112   6 C        3.192     0.003    27.444     8.543
   113   6 C        2.772     0.266    22.511     7.771
   114   8 O        0.860    -0.338    20.473     6.066
   115   7 N        2.715    -0.156    24.366     7.331
   116   6 C        2.839     0.229    23.202     7.894
   117   7 N        2.669    -0.199    25.324     7.474
   118   7 N        1.848    -0.244    27.211     7.731
   119   6 C        3.093     0.111    25.451     8.269
   120   1 H        0.924     0.090     1.882     2.146
   121   1 H        0.925     0.050     2.324     2.384
   122   1 H        0.924     0.086     1.921     2.167
   123   1 H        0.924     0.051     2.303     2.373
   124   1 H        0.924     0.104     1.753     2.071
   125   1 H        0.925     0.089     1.887     2.148
   126   1 H        0.924     0.105     1.742     2.064
   127   1 H        0.926     0.121     1.603     1.980
   128   1 H        0.860     0.269     0.812     1.412
   129   1 H        0.860     0.282     0.771     1.375
   130   1 H        0.860     0.264     0.831     1.428
   131  15 P        3.613     0.570   137.343    21.052
   132   8 O        0.808    -0.540    24.720     6.665
   133   8 O        0.808    -0.523    24.316     6.610
   134   8 O        1.656    -0.320    19.371     5.941
   135   6 C        3.882     0.081    19.195     6.229
   136   6 C        3.806     0.091    19.070     6.217
   137   8 O        1.702    -0.286    18.755     5.847
   138   6 C        3.907     0.122    18.538     6.120
   139   8 O        1.656    -0.340    19.714     5.994
   140   6 C        3.817    -0.092    22.240     6.712
   141   6 C        3.741     0.157    18.134     6.076
   142   7 N        2.739    -0.052    22.252     7.006
   143   6 C        2.756     0.315    21.648     7.619
   144   8 O        0.863    -0.489    23.538     6.505
   145   7 N        1.869    -0.314    28.979     7.980
   146   6 C        2.884     0.181    24.118     8.051
   147   7 N        2.676    -0.168    24.642     7.373
   148   6 C        2.911    -0.075    29.882     8.964
   149   6 C        2.861     0.047    26.939     8.507
   150   1 H        0.924     0.078     1.998     2.210
   151   1 H        0.924     0.044     2.394     2.419
   152   1 H        0.924     0.071     2.073     2.252
   153   1 H        0.924     0.054     2.273     2.358
   154   1 H        0.924     0.092     1.863     2.135
   155   1 H        0.925     0.085     1.925     2.170
   156   1 H        0.925     0.103     1.754     2.071
   157   1 H        0.860     0.296     0.725     1.334
   158   1 H        0.860     0.294     0.730     1.338
   159   1 H        0.926     0.158     1.341     1.811
   160   1 H        0.926     0.107     1.724     2.053
   161  15 P        3.612     0.560   137.701    21.079
   162   8 O        0.808    -0.544    24.812     6.677
   163   8 O        0.808    -0.527    24.410     6.623
   164   8 O        1.656    -0.320    19.356     5.939
   165   6 C        3.881     0.078    19.229     6.235
   166   6 C        3.790     0.088    19.135     6.230
   167   8 O        1.700    -0.288    18.791     5.853
   168   6 C        3.917     0.124    18.517     6.116
   169   8 O        1.657    -0.337    19.660     5.986
   170   6 C        3.821    -0.087    22.151     6.698
   171   6 C        3.731     0.158    18.128     6.078
   172   7 N        2.820    -0.027    21.766     6.929
   173   6 C        3.146     0.112    25.291     8.228
   174   7 N        1.870    -0.167    25.406     7.471
   175   6 C        3.199     0.023    26.944     8.460
   176   6 C        2.772     0.268    22.483     7.766
   177   8 O        0.860    -0.331    20.349     6.048
   178   7 N        2.715    -0.172    24.724     7.385
   179   6 C        2.840     0.217    23.422     7.931
   180   7 N        2.670    -0.206    25.494     7.499
   181   7 N        1.848    -0.249    27.336     7.749
   182   6 C        3.095     0.124    25.165     8.222
   183   1 H        0.925     0.076     2.017     2.221
   184   1 H        0.924     0.047     2.354     2.399
   185   1 H        0.924     0.083     1.945     2.181
   186   1 H        0.924     0.042     2.420     2.433
   187   1 H        0.924     0.088     1.897     2.154
   188   1 H        0.925     0.082     1.957     2.188
   189   1 H        0.924     0.102     1.763     2.077
   190   1 H        0.926     0.101     1.778     2.085
   191   1 H        0.860     0.268     0.816     1.415
   192   1 H        0.860     0.284     0.764     1.369
   193   1 H        0.860     0.277     0.787     1.390
   194  15 P        3.612     0.552   137.979    21.101
   195   8 O        0.808    -0.542    24.763     6.671
   196   8 O        0.808    -0.530    24.495     6.634
   197   8 O        1.656    -0.322    19.404     5.946
   198   6 C        3.882     0.078    19.241     6.236
   199   6 C        3.801     0.086    19.151     6.230
   200   8 O        1.702    -0.289    18.806     5.855
   201   6 C        3.916     0.123    18.525     6.117
   202   8 O        1.656    -0.336    19.653     5.984
   203   6 C        3.820    -0.085    22.100     6.690
   204   6 C        3.744     0.155    18.154     6.078
   205   7 N        2.822    -0.033    21.876     6.947
   206   6 C        3.138     0.112    25.320     8.235
   207   7 N        1.871    -0.174    25.565     7.495
   208   6 C        3.194     0.020    27.058     8.482
   209   6 C        2.771     0.272    22.410     7.753
   210   8 O        0.860    -0.328    20.293     6.040
   211   7 N        2.715    -0.161    24.476     7.348
   212   6 C        2.839     0.223    23.314     7.913
   213   7 N        2.669    -0.204    25.428     7.489
   214   7 N        1.847    -0.248    27.313     7.746
   215   6 C        3.092     0.116    25.340     8.251
   216   1 H        0.924     0.080     1.978     2.199
   217   1 H        0.925     0.047     2.355     2.400
   218   1 H        0.924     0.083     1.951     2.184
   219   1 H        0.924     0.039     2.456     2.451
   220   1 H        0.924     0.085     1.931     2.173
   221   1 H        0.925     0.079     1.985     2.203
   222   1 H        0.924     0.102     1.771     2.081
   223   1 H        0.926     0.095     1.827     2.114
   224   1 H        0.860     0.273     0.799     1.400
   225   1 H        0.860     0.282     0.770     1.374
   226   1 H        0.860     0.265     0.826     1.424
   227  15 P        3.609     0.551   138.023    21.104
   228   8 O        0.808    -0.544    24.804     6.676
   229   8 O        0.808    -0.535    24.612     6.650
   230   8 O        1.656    -0.322    19.393     5.945
   231   6 C        3.880     0.076    19.275     6.242
   232   6 C        3.795     0.085    19.169     6.234
   233   8 O        1.701    -0.288    18.783     5.851
   234   6 C        3.923     0.124    18.512     6.115
   235   8 O        1.656    -0.330    19.538     5.967
   236   6 C        3.822    -0.083    22.074     6.686
   237   6 C        3.741     0.155    18.163     6.081
   238   7 N        2.821    -0.032    21.854     6.943
   239   6 C        3.142     0.113    25.274     8.227
   240   7 N        1.870    -0.189    25.912     7.546
   241   6 C        3.196     0.018    27.095     8.486
   242   6 C        2.772     0.269    22.452     7.760
   243   8 O        0.860    -0.352    20.753     6.108
   244   7 N        2.715    -0.164    24.537     7.357
   245   6 C        2.839     0.230    23.186     7.891
   246   7 N        2.669    -0.203    25.419     7.488
   247   7 N        1.847    -0.244    27.216     7.732
   248   6 C        3.094     0.119    25.286     8.242
   249   1 H        0.924     0.083     1.948     2.183
   250   1 H        0.925     0.048     2.342     2.393
   251   1 H        0.924     0.086     1.921     2.167
   252   1 H        0.924     0.039     2.460     2.453
   253   1 H        0.924     0.082     1.964     2.191
   254   1 H        0.925     0.084     1.943     2.180
   255   1 H        0.924     0.109     1.708     2.044
   256   1 H        0.926     0.091     1.871     2.139
   257   1 H        0.860     0.270     0.808     1.408
   258   1 H        0.860     0.285     0.758     1.364
   259   1 H        0.860     0.272     0.804     1.405
   260  15 P        3.603     0.564   137.543    21.067
   261   8 O        0.808    -0.529    24.455     6.629
   262   8 O        0.808    -0.553    25.022     6.705
   263   8 O        1.657    -0.307    19.135     5.905
   264   6 C        3.873     0.082    19.178     6.227
   265   6 C        3.790     0.090    19.104     6.225
   266   8 O        1.701    -0.284    18.724     5.842
   267   6 C        3.753     0.098    19.022     6.219
   268   8 O        1.654    -0.467    22.197     6.360
   269   6 C        3.821    -0.102    22.428     6.740
   270   6 C        3.737     0.152    18.222     6.091
   271   7 N        2.822    -0.027    21.764     6.929
   272   6 C        3.136     0.113    25.310     8.234
   273   7 N        1.871    -0.198    26.134     7.578
   274   6 C        3.193     0.024    26.967     8.468
   275   6 C        2.771     0.277    22.308     7.735
   276   8 O        0.860    -0.371    21.118     6.161
   277   7 N        2.715    -0.147    24.187     7.304
   278   6 C        2.837     0.238    23.041     7.866
   279   7 N        2.667    -0.194    25.220     7.459
   280   7 N        1.846    -0.230    26.871     7.683
   281   6 C        3.089     0.123    25.209     8.230
   282   1 H        0.924     0.055     2.256     2.349
   283   1 H        0.924     0.066     2.128     2.281
   284   1 H        0.924     0.098     1.805     2.101
   285   1 H        0.924     0.054     2.269     2.356
   286   1 H        0.805     0.366     0.552     1.167
   287   1 H        0.924     0.084     1.943     2.180
   288   1 H        0.924     0.114     1.660     2.015
   289   1 H        0.925     0.130     1.538     1.939
   290   1 H        0.926     0.097     1.814     2.106
   291   1 H        0.860     0.278     0.782     1.385
   292   1 H        0.860     0.285     0.759     1.365
   293   1 H        0.860     0.281     0.774     1.378
   294   8 O        1.653    -0.419    21.223     6.219
   295   6 C        3.672     0.047    20.022     6.413
   296   6 C        3.779     0.090    19.114     6.228
   297   8 O        1.699    -0.260    18.310     5.777
   298   6 C        3.917     0.116    18.628     6.134
   299   8 O        1.656    -0.333    19.596     5.976
   300   6 C        3.820    -0.098    22.354     6.728
   301   6 C        3.719     0.162    18.096     6.076
   302   7 N        2.738    -0.029    21.803     6.935
   303   6 C        2.752     0.326    21.454     7.585
   304   8 O        0.862    -0.470    23.120     6.447
   305   7 N        1.868    -0.286    28.258     7.880
   306   6 C        2.881     0.190    23.959     8.024
   307   7 N        2.676    -0.184    24.991     7.425
   308   6 C        2.911    -0.067    29.671     8.932
   309   6 C        2.861     0.047    26.938     8.507
   310   1 H        0.925     0.106     1.730     2.057
   311   1 H        0.925     0.082     1.957     2.188
   312   1 H        0.925     0.088     1.897     2.154
   313   1 H        0.924     0.087     1.911     2.162
   314   1 H        0.924     0.126     1.564     1.956
   315   1 H        0.925     0.094     1.843     2.123
   316   1 H        0.924     0.112     1.682     2.028
   317   1 H        0.860     0.275     0.792     1.394
   318   1 H        0.860     0.278     0.782     1.385
   319   1 H        0.926     0.167     1.285     1.773
   320   1 H        0.926     0.156     1.350     1.817
   321   1 H        0.805     0.378     0.526     1.139
   322  15 P        3.612     0.586   136.736    21.005
   323   8 O        0.808    -0.541    24.746     6.668
   324   8 O        0.808    -0.515    24.147     6.587
   325   8 O        1.656    -0.318    19.318     5.933
   326   6 C        3.877     0.076    19.269     6.241
   327   6 C        3.794     0.086    19.158     6.233
   328   8 O        1.701    -0.271    18.495     5.806
   329   6 C        3.922     0.120    18.577     6.126
   330   8 O        1.656    -0.324    19.433     5.951
   331   6 C        3.821    -0.090    22.194     6.704
   332   6 C        3.745     0.159    18.106     6.070
   333   7 N        2.738    -0.046    22.133     6.987
   334   6 C        2.756     0.320    21.571     7.605
   335   8 O        0.863    -0.486    23.474     6.496
   336   7 N        1.872    -0.310    28.895     7.968
   337   6 C        2.884     0.174    24.272     8.077
   338   7 N        2.678    -0.187    25.054     7.434
   339   6 C        2.910    -0.093    30.324     9.030
   340   6 C        2.862     0.043    27.042     8.524
   341   1 H        0.924     0.083     1.950     2.184
   342   1 H        0.925     0.050     2.320     2.382
   343   1 H        0.924     0.091     1.870     2.139
   344   1 H        0.924     0.055     2.264     2.353
   345   1 H        0.924     0.106     1.733     2.059
   346   1 H        0.925     0.091     1.872     2.139
   347   1 H        0.925     0.108     1.717     2.049
   348   1 H        0.860     0.276     0.790     1.393
   349   1 H        0.860     0.278     0.784     1.387
   350   1 H        0.926     0.161     1.321     1.798
   351   1 H        0.926     0.118     1.632     1.998
   352  15 P        3.597     0.579   137.000    21.026
   353   8 O        0.808    -0.527    24.429     6.625
   354   8 O        0.808    -0.545    24.825     6.679
   355   8 O        1.657    -0.311    19.209     5.917
   356   6 C        3.868     0.085    19.131     6.220
   357   6 C        3.799     0.090    19.098     6.222
   358   8 O        1.702    -0.276    18.577     5.819
   359   6 C        3.920     0.113    18.680     6.143
   360   8 O        1.657    -0.332    19.574     5.972
   361   6 C        3.816    -0.098    22.347     6.728
   362   6 C        3.742     0.157    18.134     6.075
   363   7 N        2.739    -0.044    22.090     6.980
   364   6 C        2.755     0.316    21.633     7.616
   365   8 O        0.863    -0.493    23.636     6.518
   366   7 N        1.872    -0.308    28.826     7.959
   367   6 C        2.883     0.173    24.291     8.080
   368   7 N        2.678    -0.177    24.830     7.401
   369   6 C        2.911    -0.086    30.155     9.005
   370   6 C        2.860     0.043    27.030     8.522
   371   1 H        0.924     0.039     2.458     2.452
   372   1 H        0.925     0.073     2.050     2.239
   373   1 H        0.924     0.074     2.038     2.232
   374   1 H        0.924     0.057     2.231     2.336
   375   1 H        0.924     0.110     1.692     2.034
   376   1 H        0.925     0.099     1.794     2.095
   377   1 H        0.924     0.103     1.760     2.075
   378   1 H        0.860     0.285     0.758     1.364
   379   1 H        0.860     0.290     0.744     1.351
   380   1 H        0.926     0.168     1.279     1.768
   381   1 H        0.926     0.122     1.594     1.974
   382  15 P        3.613     0.571   137.274    21.047
   383   8 O        0.808    -0.542    24.762     6.670
   384   8 O        0.808    -0.523    24.333     6.612
   385   8 O        1.656    -0.318    19.329     5.935
   386   6 C        3.874     0.079    19.223     6.234
   387   6 C        3.806     0.090    19.092     6.220
   388   8 O        1.702    -0.283    18.692     5.837
   389   6 C        3.913     0.121    18.563     6.124
   390   8 O        1.656    -0.339    19.696     5.991
   391   6 C        3.816    -0.093    22.269     6.716
   392   6 C        3.742     0.154    18.178     6.083
   393   7 N        2.738    -0.042    22.056     6.975
   394   6 C        2.756     0.316    21.632     7.616
   395   8 O        0.863    -0.492    23.599     6.513
   396   7 N        1.869    -0.312    28.935     7.974
   397   6 C        2.884     0.181    24.131     8.053
   398   7 N        2.677    -0.168    24.646     7.373
   399   6 C        2.911    -0.075    29.883     8.964
   400   6 C        2.860     0.048    26.915     8.504
   401   1 H        0.924     0.081     1.973     2.197
   402   1 H        0.924     0.043     2.406     2.425
   403   1 H        0.924     0.070     2.082     2.256
   404   1 H        0.925     0.059     2.212     2.326
   405   1 H        0.924     0.100     1.782     2.087
   406   1 H        0.925     0.090     1.876     2.142
   407   1 H        0.925     0.103     1.753     2.071
   408   1 H        0.860     0.286     0.755     1.362
   409   1 H        0.860     0.293     0.736     1.344
   410   1 H        0.926     0.163     1.306     1.787
   411   1 H        0.926     0.118     1.631     1.997
   412  15 P        3.617     0.570   137.339    21.052
   413   8 O        0.808    -0.545    24.842     6.681
   414   8 O        0.808    -0.525    24.366     6.617
   415   8 O        1.656    -0.315    19.273     5.926
   416   6 C        3.880     0.078    19.245     6.237
   417   6 C        3.796     0.088    19.128     6.228
   418   8 O        1.701    -0.286    18.749     5.846
   419   6 C        3.912     0.124    18.514     6.116
   420   8 O        1.657    -0.343    19.784     6.004
   421   6 C        3.822    -0.096    22.312     6.722
   422   6 C        3.735     0.156    18.164     6.082
   423   7 N        2.820    -0.025    21.720     6.922
   424   6 C        3.143     0.105    25.442     8.253
   425   7 N        1.870    -0.160    25.256     7.449
   426   6 C        3.197     0.012    27.219     8.505
   427   6 C        2.772     0.266    22.512     7.771
   428   8 O        0.860    -0.330    20.335     6.046
   429   7 N        2.715    -0.162    24.496     7.351
   430   6 C        2.839     0.218    23.407     7.929
   431   7 N        2.669    -0.204    25.428     7.489
   432   7 N        1.848    -0.251    27.400     7.758
   433   6 C        3.093     0.118    25.302     8.244
   434   1 H        0.924     0.077     2.015     2.220
   435   1 H        0.924     0.046     2.365     2.405
   436   1 H        0.924     0.080     1.980     2.200
   437   1 H        0.924     0.043     2.410     2.428
   438   1 H        0.925     0.099     1.792     2.093
   439   1 H        0.925     0.095     1.833     2.117
   440   1 H        0.925     0.101     1.772     2.082
   441   1 H        0.926     0.111     1.692     2.034
   442   1 H        0.860     0.267     0.822     1.420
   443   1 H        0.860     0.281     0.772     1.377
   444   1 H        0.860     0.271     0.807     1.408
   445  15 P        3.612     0.570   137.334    21.051
   446   8 O        0.808    -0.554    25.038     6.707
   447   8 O        0.808    -0.521    24.290     6.606
   448   8 O        1.656    -0.315    19.275     5.927
   449   6 C        3.889     0.077    19.246     6.237
   450   6 C        3.782     0.088    19.138     6.232
   451   8 O        1.700    -0.277    18.601     5.823
   452   6 C        3.910     0.124    18.505     6.114
   453   8 O        1.656    -0.340    19.721     5.995
   454   6 C        3.819    -0.090    22.200     6.705
   455   6 C        3.722     0.161    18.109     6.077
   456   7 N        2.738    -0.059    22.375     7.025
   457   6 C        2.754     0.319    21.589     7.608
   458   8 O        0.863    -0.478    23.311     6.473
   459   7 N        1.870    -0.315    29.014     7.984
   460   6 C        2.883     0.169    24.368     8.093
   461   7 N        2.677    -0.192    25.177     7.452
   462   6 C        2.911    -0.095    30.392     9.040
   463   6 C        2.861     0.046    26.964     8.511
   464   1 H        0.925     0.078     2.001     2.212
   465   1 H        0.924     0.042     2.421     2.433
   466   1 H        0.924     0.083     1.951     2.185
   467   1 H        0.924     0.044     2.391     2.418
   468   1 H        0.925     0.094     1.841     2.122
   469   1 H        0.925     0.085     1.924     2.169
   470   1 H        0.925     0.106     1.730     2.057
   471   1 H        0.860     0.290     0.743     1.350
   472   1 H        0.860     0.273     0.799     1.400
   473   1 H        0.926     0.132     1.517     1.926
   474   1 H        0.926     0.094     1.844     2.123
   475  15 P        3.607     0.553   137.953    21.099
   476   8 O        0.808    -0.553    25.020     6.705
   477   8 O        0.808    -0.543    24.790     6.674
   478   8 O        1.656    -0.325    19.454     5.954
   479   6 C        3.879     0.086    19.108     6.215
   480   6 C        3.820     0.095    18.995     6.203
   481   8 O        1.703    -0.297    18.944     5.876
   482   6 C        3.914     0.126    18.477     6.110
   483   8 O        1.656    -0.344    19.804     6.008
   484   6 C        3.822    -0.092    22.235     6.710
   485   6 C        3.749     0.161    18.069     6.062
   486   7 N        2.739    -0.056    22.330     7.018
   487   6 C        2.756     0.318    21.601     7.611
   488   8 O        0.862    -0.492    23.612     6.515
   489   7 N        1.870    -0.305    28.769     7.951
   490   6 C        2.883     0.173    24.293     8.080
   491   7 N        2.677    -0.187    25.051     7.433
   492   6 C        2.910    -0.092    30.320     9.029
   493   6 C        2.861     0.046    26.964     8.511
   494   1 H        0.924     0.070     2.082     2.257
   495   1 H        0.924     0.041     2.440     2.443
   496   1 H        0.924     0.064     2.156     2.296
   497   1 H        0.924     0.048     2.345     2.395
   498   1 H        0.925     0.084     1.941     2.179
   499   1 H        0.925     0.093     1.849     2.126
   500   1 H        0.924     0.101     1.776     2.084
   501   1 H        0.860     0.291     0.739     1.347
   502   1 H        0.860     0.271     0.805     1.406
   503   1 H        0.926     0.135     1.496     1.913
   504   1 H        0.926     0.089     1.891     2.150
   505  15 P        3.600     0.555   137.886    21.094
   506   8 O        0.808    -0.548    24.893     6.688
   507   8 O        0.808    -0.556    25.087     6.714
   508   8 O        1.657    -0.319    19.350     5.938
   509   6 C        3.863     0.086    19.123     6.219
   510   6 C        3.779     0.092    19.083     6.223
   511   8 O        1.699    -0.287    18.766     5.849
   512   6 C        3.921     0.119    18.584     6.127
   513   8 O        1.657    -0.327    19.486     5.959
   514   6 C        3.822    -0.097    22.328     6.724
   515   6 C        3.724     0.160    18.119     6.078
   516   7 N        2.740    -0.058    22.356     7.022
   517   6 C        2.755     0.317    21.616     7.613
   518   8 O        0.862    -0.480    23.351     6.479
   519   7 N        1.870    -0.317    29.058     7.990
   520   6 C        2.883     0.173    24.282     8.079
   521   7 N        2.678    -0.197    25.278     7.467
   522   6 C        2.911    -0.093    30.331     9.031
   523   6 C        2.861     0.045    26.997     8.517
   524   1 H        0.924     0.046     2.365     2.405
   525   1 H        0.924     0.073     2.051     2.240
   526   1 H        0.924     0.077     2.012     2.218
   527   1 H        0.924     0.045     2.379     2.412
   528   1 H        0.924     0.088     1.897     2.154
   529   1 H        0.925     0.110     1.698     2.038
   530   1 H        0.924     0.120     1.613     1.986
   531   1 H        0.860     0.287     0.754     1.360
   532   1 H        0.860     0.259     0.848     1.443
   533   1 H        0.926     0.120     1.614     1.987
   534   1 H        0.926     0.083     1.948     2.182
   535  15 P        3.589     0.561   137.664    21.077
   536   8 O        0.808    -0.525    24.365     6.617
   537   8 O        0.808    -0.556    25.101     6.716
   538   8 O        1.656    -0.319    19.340     5.937
   539   6 C        3.858     0.081    19.192     6.230
   540   6 C        3.795     0.094    19.033     6.212
   541   8 O        1.700    -0.293    18.866     5.864
   542   6 C        3.739     0.104    18.942     6.210
   543   8 O        1.654    -0.469    22.234     6.365
   544   6 C        3.827    -0.105    22.474     6.746
   545   6 C        3.719     0.151    18.258     6.103
   546   7 N        2.738    -0.043    22.074     6.978
   547   6 C        2.755     0.320    21.555     7.603
   548   8 O        0.862    -0.461    22.936     6.421
   549   7 N        1.870    -0.305    28.762     7.950
   550   6 C        2.884     0.185    24.044     8.039
   551   7 N        2.678    -0.194    25.219     7.458
   552   6 C        2.911    -0.082    30.040     8.987
   553   6 C        2.860     0.044    27.001     8.517
   554   1 H        0.925     0.064     2.150     2.293
   555   1 H        0.924     0.056     2.249     2.345
   556   1 H        0.924     0.084     1.939     2.178
   557   1 H        0.924     0.055     2.261     2.352
   558   1 H        0.805     0.373     0.537     1.151
   559   1 H        0.924     0.101     1.773     2.082
   560   1 H        0.924     0.111     1.690     2.033
   561   1 H        0.925     0.134     1.507     1.919
   562   1 H        0.860     0.281     0.771     1.376
   563   1 H        0.860     0.257     0.857     1.450
   564   1 H        0.926     0.119     1.621     1.991
   565   1 H        0.926     0.097     1.812     2.105

 Mol. C6AA /au·bohr⁶  :    4309015.034668
 Mol. C8AA /au·bohr⁸  :  108074816.279714
 Mol. α(0) /au        :       3143.770289


Wiberg/Mayer (AO) data.
largest (>0.10) Wiberg bond orders for each atom

 ---------------------------------------------------------------------------
     #   Z sym  total        # sym  WBO       # sym  WBO       # sym  WBO
 ---------------------------------------------------------------------------
     1   8 O    1.896 --     2 C    1.013    31 H    0.842
     2   6 C    3.887 --     1 O    1.013     3 C    0.962    21 H    0.946
                            20 H    0.930
     3   6 C    3.918 --     4 O    0.973     5 C    0.966     2 C    0.962
                            22 H    0.944
     4   8 O    2.089 --     8 C    0.984     3 C    0.973
     5   6 C    3.916 --     7 C    0.988     3 C    0.966    23 H    0.950
                             6 O    0.935
     6   8 O    2.263 --    32 P    1.114     5 C    0.935
     7   6 C    3.964 --     5 C    0.988     8 C    0.972    25 H    0.961
                            24 H    0.957
     8   6 C    3.906 --     4 O    0.984     7 C    0.972     9 N    0.953
                            26 H    0.923
     9   7 N    3.615 --    10 C    1.242    19 C    1.161     8 C    0.953
    10   6 C    3.819 --    11 N    1.519     9 N    1.242    27 H    0.944
    11   7 N    2.983 --    10 C    1.519    12 C    1.272
    12   6 C    3.799 --    11 N    1.272    19 C    1.243    13 C    1.084
    13   6 C    3.947 --    14 O    1.651    15 N    1.130    12 C    1.084
[...]
                           299 O    0.928
   299   8 O    2.260 --   322 P    1.118   298 C    0.928
   300   6 C    3.932 --   298 C    0.980   315 H    0.960   314 H    0.957
                           301 C    0.956
   301   6 C    3.899 --   297 O    0.985   302 N    0.962   300 C    0.956
                           316 H    0.924
   302   7 N    3.495 --   309 C    1.230   303 C    1.054   301 C    0.962
   303   6 C    3.942 --   304 O    1.563   305 N    1.238   302 N    1.054
   304   8 O    1.929 --   303 C    1.563   305 N    0.128
   305   7 N    2.997 --   306 C    1.330   303 C    1.238   304 O    0.128
                           307 N    0.105
   306   6 C    3.958 --   307 N    1.419   305 N    1.330   308 C    1.126
   307   7 N    3.421 --   306 C    1.419   318 H    0.903   317 H    0.869
                           305 N    0.105
   308   6 C    3.792 --   309 C    1.592   306 C    1.126   319 H    0.935
   309   6 C    3.900 --   308 C    1.592   302 N    1.230   320 H    0.932
   310   1 H    0.957 --   295 C    0.937
   311   1 H    0.958 --   295 C    0.938
   312   1 H    0.973 --   296 C    0.939
   313   1 H    0.986 --   298 C    0.950
   314   1 H    0.981 --   300 C    0.957
   315   1 H    0.991 --   300 C    0.960
   316   1 H    0.959 --   301 C    0.924
   317   1 H    0.922 --   307 N    0.869
   318   1 H    0.922 --   307 N    0.903
   319   1 H    0.965 --   308 C    0.935
   320   1 H    0.963 --   309 C    0.932
   321   1 H    0.856 --   294 O    0.845
   322  15 P    5.620 --   324 O    1.687   323 O    1.657   299 O    1.118
                           325 O    1.107
   323   8 O    1.825 --   322 P    1.657
   324   8 O    1.860 --   322 P    1.687
   325   8 O    2.257 --   322 P    1.107   326 C    0.950
   326   6 C    3.921 --   327 C    0.976   342 H    0.968   341 H    0.963
                           325 O    0.950
   327   6 C    3.939 --   328 O    0.977   326 C    0.976   329 C    0.967
                           343 H    0.941
   328   8 O    2.069 --   327 C    0.977   332 C    0.968
   329   6 C    3.916 --   331 C    0.984   327 C    0.967   344 H    0.959
                           330 O    0.929
   330   8 O    2.275 --   352 P    1.139   329 C    0.929
   331   6 C    3.949 --   329 C    0.984   346 H    0.964   332 C    0.964
                           345 H    0.960
   332   6 C    3.908 --   333 N    0.969   328 O    0.968   331 C    0.964
                           347 H    0.934
   333   7 N    3.525 --   340 C    1.217   334 C    1.055   332 C    0.969
   334   6 C    3.944 --   335 O    1.560   336 N    1.241   333 N    1.055
   335   8 O    1.940 --   334 C    1.560   336 N    0.128
   336   7 N    3.007 --   337 C    1.325   334 C    1.241   335 O    0.128
                           338 N    0.106
   337   6 C    3.965 --   338 N    1.422   336 N    1.325   339 C    1.134
   338   7 N    3.447 --   337 C    1.422   349 H    0.903   348 H    0.872
                           336 N    0.106
   339   6 C    3.861 --   340 C    1.617   337 C    1.134   350 H    0.938
   340   6 C    3.924 --   339 C    1.617   333 N    1.217   351 H    0.941
   341   1 H    0.991 --   326 C    0.963
   342   1 H    0.995 --   326 C    0.968
   343   1 H    0.977 --   327 C    0.941
   344   1 H    0.991 --   329 C    0.959
   345   1 H    0.986 --   331 C    0.960
   346   1 H    0.992 --   331 C    0.964
   347   1 H    0.972 --   332 C    0.934
   348   1 H    0.922 --   338 N    0.872
   349   1 H    0.922 --   338 N    0.903
   350   1 H    0.969 --   339 C    0.938
   351   1 H    0.977 --   340 C    0.941
   352  15 P    5.629 --   354 O    1.666   353 O    1.663   330 O    1.139
                           355 O    1.106
   353   8 O    1.836 --   352 P    1.663
   354   8 O    1.850 --   352 P    1.666
   355   8 O    2.254 --   352 P    1.106   356 C    0.948
   356   6 C    3.927 --   357 C    0.984   371 H    0.968   372 H    0.963
                           355 O    0.948
   357   6 C    3.951 --   356 C    0.984   358 O    0.977   359 C    0.963
                           373 H    0.951
   358   8 O    2.075 --   357 C    0.977   362 C    0.974
   359   6 C    3.911 --   361 C    0.979   357 C    0.963   374 H    0.957
                           360 O    0.934
   360   8 O    2.268 --   382 P    1.119   359 C    0.934
   361   6 C    3.943 --   359 C    0.979   375 H    0.965   376 H    0.963
                           362 C    0.958
   362   6 C    3.911 --   358 O    0.974   363 N    0.972   361 C    0.958
                           377 H    0.935
   363   7 N    3.512 --   370 C    1.221   364 C    1.052   362 C    0.972
   364   6 C    3.944 --   365 O    1.557   366 N    1.247   363 N    1.052
   365   8 O    1.936 --   364 C    1.557   366 N    0.130
   366   7 N    3.015 --   367 C    1.322   364 C    1.247   365 O    0.130
                           368 N    0.103
   367   6 C    3.967 --   368 N    1.429   366 N    1.322   369 C    1.133
   368   7 N    3.432 --   367 C    1.429   379 H    0.896   378 H    0.865
                           366 N    0.103
   369   6 C    3.830 --   370 C    1.603   367 C    1.133   380 H    0.936
   370   6 C    3.915 --   369 C    1.603   363 N    1.221   381 H    0.947
   371   1 H    0.993 --   356 C    0.968
   372   1 H    0.992 --   356 C    0.963
   373   1 H    0.988 --   357 C    0.951
   374   1 H    0.993 --   359 C    0.957
   375   1 H    0.986 --   361 C    0.965
   376   1 H    0.990 --   361 C    0.963
   377   1 H    0.973 --   362 C    0.935
   378   1 H    0.917 --   368 N    0.865
   379   1 H    0.915 --   368 N    0.896
   380   1 H    0.967 --   369 C    0.936
   381   1 H    0.978 --   370 C    0.947
   382  15 P    5.641 --   384 O    1.685   383 O    1.664   385 O    1.121
                           360 O    1.119
   383   8 O    1.833 --   382 P    1.664
   384   8 O    1.858 --   382 P    1.685
   385   8 O    2.271 --   382 P    1.121   386 C    0.945
   386   6 C    3.931 --   387 C    0.988   402 H    0.970   401 H    0.964
                           385 O    0.945
   387   6 C    3.956 --   386 C    0.988   388 O    0.977   389 C    0.963
                           403 H    0.952
   388   8 O    2.076 --   387 C    0.977   392 C    0.972
   389   6 C    3.907 --   391 C    0.976   387 C    0.963   404 H    0.959
                           390 O    0.932
   390   8 O    2.259 --   412 P    1.115   389 C    0.932
   391   6 C    3.947 --   389 C    0.976   405 H    0.967   406 H    0.965
                           392 C    0.959
   392   6 C    3.915 --   388 O    0.972   393 N    0.971   391 C    0.959
                           407 H    0.940
   393   7 N    3.507 --   400 C    1.226   394 C    1.050   392 C    0.971
   394   6 C    3.944 --   395 O    1.557   396 N    1.248   393 N    1.050
   395   8 O    1.940 --   394 C    1.557   396 N    0.132
   396   7 N    3.022 --   397 C    1.323   394 C    1.248   395 O    0.132
   397   6 C    3.967 --   398 N    1.431   396 N    1.323   399 C    1.131
   398   7 N    3.422 --   397 C    1.431   409 H    0.894   408 H    0.862
   399   6 C    3.817 --   400 C    1.596   397 C    1.131   410 H    0.938
   400   6 C    3.912 --   399 C    1.596   393 N    1.226   411 H    0.947
   401   1 H    0.992 --   386 C    0.964
   402   1 H    0.997 --   386 C    0.970
   403   1 H    0.991 --   387 C    0.952
   404   1 H    0.992 --   389 C    0.959
   405   1 H    0.989 --   391 C    0.967
   406   1 H    0.991 --   391 C    0.965
   407   1 H    0.979 --   392 C    0.940
   408   1 H    0.916 --   398 N    0.862
   409   1 H    0.913 --   398 N    0.894
   410   1 H    0.970 --   399 C    0.938
   411   1 H    0.979 --   400 C    0.947
   412  15 P    5.644 --   414 O    1.690   413 O    1.669   415 O    1.118
                           390 O    1.115
   413   8 O    1.839 --   412 P    1.669
   414   8 O    1.864 --   412 P    1.690
   415   8 O    2.263 --   412 P    1.118   416 C    0.946
   416   6 C    3.923 --   417 C    0.980   435 H    0.969   434 H    0.964
                           415 O    0.946
   417   6 C    3.947 --   416 C    0.980   418 O    0.975   419 C    0.967
                           436 H    0.949
   418   8 O    2.073 --   417 C    0.975   422 C    0.968
   419   6 C    3.926 --   421 C    0.987   417 C    0.967   437 H    0.964
                           420 O    0.933
   420   8 O    2.253 --   445 P    1.105   419 C    0.933
   421   6 C    3.974 --   419 C    0.987   422 C    0.978   438 H    0.964
                           439 H    0.961
   422   6 C    3.923 --   421 C    0.978   418 O    0.968   423 N    0.964
                           440 H    0.943
   423   7 N    3.616 --   424 C    1.229   433 C    1.162   422 C    0.964
   424   6 C    3.840 --   425 N    1.545   423 N    1.229   441 H    0.949
   425   7 N    2.991 --   424 C    1.545   426 C    1.248
   426   6 C    3.810 --   433 C    1.264   425 N    1.248   427 C    1.088
   427   6 C    3.952 --   428 O    1.661   429 N    1.118   426 C    1.088
   428   8 O    1.993 --   427 C    1.661   429 N    0.133
   429   7 N    3.520 --   430 C    1.197   427 C    1.118   442 H    0.849
                           428 O    0.133
   430   6 C    3.957 --   431 N    1.404   432 N    1.288   429 N    1.197
   431   7 N    3.396 --   430 C    1.404   444 H    0.906   443 H    0.856
   432   7 N    2.830 --   433 C    1.297   430 C    1.288
   433   6 C    3.895 --   432 N    1.297   426 C    1.264   423 N    1.162
   434   1 H    0.993 --   416 C    0.964
   435   1 H    0.996 --   416 C    0.969
   436   1 H    0.986 --   417 C    0.949
   437   1 H    0.997 --   419 C    0.964
   438   1 H    0.989 --   421 C    0.964
   439   1 H    0.991 --   421 C    0.961
   440   1 H    0.982 --   422 C    0.943
   441   1 H    0.987 --   424 C    0.949
   442   1 H    0.928 --   429 N    0.849
   443   1 H    0.920 --   431 N    0.856
   444   1 H    0.926 --   431 N    0.906
   445  15 P    5.638 --   447 O    1.706   446 O    1.663   448 O    1.114
                           420 O    1.105
   446   8 O    1.840 --   445 P    1.663
   447   8 O    1.883 --   445 P    1.706
   448   8 O    2.262 --   445 P    1.114   449 C    0.949
   449   6 C    3.925 --   450 C    0.978   465 H    0.969   464 H    0.965
                           448 O    0.949
   450   6 C    3.946 --   451 O    0.978   449 C    0.978   452 C    0.968
                           466 H    0.945
   451   8 O    2.073 --   450 C    0.978   455 C    0.972
   452   6 C    3.922 --   454 C    0.986   450 C    0.968   467 H    0.961
                           453 O    0.930
   453   8 O    2.263 --   475 P    1.116   452 C    0.930
   454   6 C    3.966 --   452 C    0.986   455 C    0.973   468 H    0.964
                           469 H    0.962
   455   6 C    3.914 --   454 C    0.973   451 O    0.972   456 N    0.962
                           470 H    0.938
   456   7 N    3.526 --   463 C    1.220   457 C    1.054   455 C    0.962
   457   6 C    3.943 --   458 O    1.557   459 N    1.242   456 N    1.054
   458   8 O    1.934 --   457 C    1.557   459 N    0.124
   459   7 N    3.002 --   460 C    1.327   457 C    1.242   458 O    0.124
                           461 N    0.104
   460   6 C    3.973 --   461 N    1.421   459 N    1.327   462 C    1.140
   461   7 N    3.442 --   460 C    1.421   472 H    0.905   471 H    0.860
                           459 N    0.104
   462   6 C    3.879 --   463 C    1.617   460 C    1.140   473 H    0.947
   463   6 C    3.933 --   462 C    1.617   456 N    1.220   474 H    0.948
   464   1 H    0.993 --   449 C    0.965
   465   1 H    0.995 --   449 C    0.969
   466   1 H    0.981 --   450 C    0.945
   467   1 H    0.995 --   452 C    0.961
   468   1 H    0.989 --   454 C    0.964
   469   1 H    0.993 --   454 C    0.962
   470   1 H    0.976 --   455 C    0.938
   471   1 H    0.914 --   461 N    0.860
   472   1 H    0.924 --   461 N    0.905
   473   1 H    0.979 --   462 C    0.947
   474   1 H    0.985 --   463 C    0.948
   475  15 P    5.665 --   477 O    1.699   476 O    1.680   478 O    1.119
                           453 O    1.116
   476   8 O    1.856 --   475 P    1.680
   477   8 O    1.876 --   475 P    1.699
   478   8 O    2.268 --   475 P    1.119   479 C    0.943
   479   6 C    3.933 --   480 C    0.989   495 H    0.971   494 H    0.966
                           478 O    0.943
   480   6 C    3.958 --   479 C    0.989   481 O    0.976   482 C    0.966
                           496 H    0.953
   481   8 O    2.075 --   480 C    0.976   485 C    0.971
   482   6 C    3.915 --   484 C    0.979   480 C    0.966   497 H    0.964
                           483 O    0.933
   483   8 O    2.264 --   505 P    1.128   482 C    0.933
   484   6 C    3.962 --   482 C    0.979   498 H    0.970   499 H    0.966
                           485 C    0.965
   485   6 C    3.918 --   481 O    0.971   486 N    0.967   484 C    0.965
                           500 H    0.942
   486   7 N    3.519 --   493 C    1.223   487 C    1.051   485 C    0.967
   487   6 C    3.942 --   488 O    1.550   489 N    1.250   486 N    1.051
   488   8 O    1.932 --   487 C    1.550   489 N    0.130
   489   7 N    3.016 --   490 C    1.328   487 C    1.250   488 O    0.130
                           491 N    0.105
   490   6 C    3.972 --   491 N    1.422   489 N    1.328   492 C    1.136
   491   7 N    3.437 --   490 C    1.422   502 H    0.907   501 H    0.862
                           489 N    0.105
   492   6 C    3.862 --   493 C    1.613   490 C    1.136   503 H    0.947
   493   6 C    3.931 --   492 C    1.613   486 N    1.223   504 H    0.951
   494   1 H    0.995 --   479 C    0.966
   495   1 H    0.998 --   479 C    0.971
   496   1 H    0.993 --   480 C    0.953
   497   1 H    0.997 --   482 C    0.964
   498   1 H    0.993 --   484 C    0.970
   499   1 H    0.991 --   484 C    0.966
   500   1 H    0.982 --   485 C    0.942
   501   1 H    0.913 --   491 N    0.862
   502   1 H    0.925 --   491 N    0.907
   503   1 H    0.978 --   492 C    0.947
   504   1 H    0.986 --   493 C    0.951
   505  15 P    5.656 --   507 O    1.697   506 O    1.678   483 O    1.128
                           508 O    1.099
   506   8 O    1.857 --   505 P    1.678
   507   8 O    1.895 --   505 P    1.697
   508   8 O    2.244 --   505 P    1.099   509 C    0.947
   509   6 C    3.911 --   510 C    0.969   524 H    0.963   525 H    0.961
                           508 O    0.947
   510   6 C    3.942 --   511 O    0.979   509 C    0.969   512 C    0.966
                           526 H    0.951
   511   8 O    2.075 --   510 C    0.979   515 C    0.970
   512   6 C    3.927 --   514 C    0.985   510 C    0.966   527 H    0.956
                           513 O    0.942
   513   8 O    2.273 --   535 P    1.115   512 C    0.942
   514   6 C    3.963 --   512 C    0.985   515 C    0.970   528 H    0.967
                           529 H    0.960
   515   6 C    3.907 --   511 O    0.970   514 C    0.970   516 N    0.963
                           530 H    0.932
   516   7 N    3.529 --   523 C    1.226   517 C    1.050   515 C    0.963
   517   6 C    3.944 --   518 O    1.555   519 N    1.249   516 N    1.050
   518   8 O    1.934 --   517 C    1.555   519 N    0.128
   519   7 N    3.018 --   520 C    1.331   517 C    1.249   518 O    0.128
                           521 N    0.106
   520   6 C    3.973 --   521 N    1.413   519 N    1.331   522 C    1.143
   521   7 N    3.441 --   520 C    1.413   532 H    0.912   531 H    0.865
                           519 N    0.106
   522   6 C    3.882 --   523 C    1.614   520 C    1.143   533 H    0.952
   523   6 C    3.941 --   522 C    1.614   516 N    1.226   534 H    0.953
   524   1 H    0.989 --   509 C    0.963
   525   1 H    0.994 --   509 C    0.961
   526   1 H    0.988 --   510 C    0.951
   527   1 H    0.995 --   512 C    0.956
   528   1 H    0.990 --   514 C    0.967
   529   1 H    0.988 --   514 C    0.960
   530   1 H    0.969 --   515 C    0.932
   531   1 H    0.916 --   521 N    0.865
   532   1 H    0.932 --   521 N    0.912
   533   1 H    0.983 --   522 C    0.952
   534   1 H    0.989 --   523 C    0.953
   535  15 P    5.653 --   536 O    1.689   537 O    1.656   538 O    1.141
                           513 O    1.115
   536   8 O    1.856 --   535 P    1.689
   537   8 O    1.838 --   535 P    1.656
   538   8 O    2.279 --   535 P    1.141   539 C    0.933
   539   6 C    3.921 --   540 C    0.987   554 H    0.967   555 H    0.965
                           538 O    0.933
   540   6 C    3.938 --   539 C    0.987   541 O    0.969   542 C    0.964
                           556 H    0.947
   541   8 O    2.077 --   545 C    0.979   540 C    0.969
   542   6 C    3.935 --   543 O    1.002   544 C    0.967   540 C    0.964
                           557 H    0.958
   543   8 O    1.917 --   542 C    1.002   558 H    0.847
   544   6 C    3.938 --   559 H    0.969   542 C    0.967   560 H    0.966
                           545 C    0.962
   545   6 C    3.894 --   541 O    0.979   544 C    0.962   546 N    0.953
                           561 H    0.927
   546   7 N    3.510 --   553 C    1.235   547 C    1.051   545 C    0.953
   547   6 C    3.946 --   548 O    1.561   549 N    1.244   546 N    1.051
   548   8 O    1.932 --   547 C    1.561   549 N    0.128
   549   7 N    3.016 --   550 C    1.338   547 C    1.244   548 O    0.128
                           551 N    0.106
   550   6 C    3.969 --   551 N    1.412   549 N    1.338   552 C    1.135
   551   7 N    3.433 --   550 C    1.412   563 H    0.913   562 H    0.864
                           549 N    0.106
   552   6 C    3.850 --   553 C    1.607   550 C    1.135   564 H    0.952
   553   6 C    3.939 --   552 C    1.607   546 N    1.235   565 H    0.952
   554   1 H    0.995 --   539 C    0.967
   555   1 H    0.996 --   539 C    0.965
   556   1 H    0.982 --   540 C    0.947
   557   1 H    0.994 --   542 C    0.958
   558   1 H    0.860 --   543 O    0.847
   559   1 H    0.989 --   544 C    0.969
   560   1 H    0.987 --   544 C    0.966
   561   1 H    0.962 --   545 C    0.927
   562   1 H    0.919 --   551 N    0.864
   563   1 H    0.933 --   551 N    0.913
   564   1 H    0.983 --   552 C    0.952
   565   1 H    0.985 --   553 C    0.952
 ---------------------------------------------------------------------------

Topologies differ in total number of bonds
Writing topology from bond orders to xtbtopo.mol

molecular dipole:
                 x           y           z       tot (Debye)
 q only:        0.494     -11.876     -59.963
   full:        1.010     -10.889     -54.409     141.059
molecular quadrupole (traceless):
                xx          xy          yy          xz          yz          zz
 q only:    -1348.026   -1045.959    2175.205     326.199    -269.546    -827.179
  q+dip:    -1329.531    -910.481    2096.192     303.034    -342.712    -766.661
   full:    -1347.860    -916.157    2135.590     301.127    -347.635    -787.731


           -------------------------------------------------
          | TOTAL ENERGY            -1146.209791310222 Eh   |
          | GRADIENT NORM               0.459926251951 Eh/α |
          | HOMO-LUMO GAP               0.003360115699 eV   |
           -------------------------------------------------

------------------------------------------------------------------------
 * finished run on 2023/04/12 at 14:26:41.561     
------------------------------------------------------------------------
 total:
 * wall-time:     0 d,  0 h,  0 min, 23.268 sec
 *  cpu-time:     0 d,  0 h,  3 min, 49.925 sec
 * ratio c/w:     9.882 speedup
 SCF:
 * wall-time:     0 d,  0 h,  0 min, 22.654 sec
 *  cpu-time:     0 d,  0 h,  3 min, 44.427 sec
 * ratio c/w:     9.907 speedup

