      -----------------------------------------------------------      
     |                   =====================                   |     
     |                           x T B                           |     
     |                   =====================                   |     
     |                         S. Grimme                         |     
     |          Mulliken Center for Theoretical Chemistry        |     
     |                    University of Bonn                     |     
      -----------------------------------------------------------      

   * xtb version 6.5.1 (579679a) compiled by 'ehlert@majestix' on 2022-07-11

   xtb is free software: you can redistribute it and/or modify it under
   the terms of the GNU Lesser General Public License as published by
   the Free Software Foundation, either version 3 of the License, or
   (at your option) any later version.
   
   xtb is distributed in the hope that it will be useful,
   but WITHOUT ANY WARRANTY; without even the implied warranty of
   MERCHANTABILITY or FITNESS FOR A PARTICULAR PURPOSE.  See the
   GNU Lesser General Public License for more details.
   
   Cite this work as:
   * C. Bannwarth, E. Caldeweyher, S. Ehlert, A. Hansen, P. Pracht,
     J. Seibert, S. Spicher, S. Grimme, WIREs Comput. Mol. Sci., 2020, 11,
     e01493. DOI: 10.1002/wcms.1493
   
   for GFN2-xTB:
   * C. Bannwarth, S. Ehlert and S. Grimme., J. Chem. Theory Comput., 2019,
     15, 1652-1671. DOI: 10.1021/acs.jctc.8b01176
   for GFN1-xTB:
   * S. Grimme, C. Bannwarth, P. Shushkov, J. Chem. Theory Comput., 2017,
     13, 1989-2009. DOI: 10.1021/acs.jctc.7b00118
   for GFN0-xTB:
   * P. Pracht, E. Caldeweyher, S. Ehlert, S. Grimme, ChemRxiv, 2019, preprint.
     DOI: 10.26434/chemrxiv.8326202.v1
   for GFN-FF:
   * S. Spicher and S. Grimme, Angew. Chem. Int. Ed., 2020, 59, 15665-15673.
     DOI: 10.1002/anie.202004239
   
   for ALPB and GBSA implicit solvation:
   * S. Ehlert, M. Stahn, S. Spicher, S. Grimme, J. Chem. Theory Comput.,
     2021, 17, 4250-4261. DOI: 10.1021/acs.jctc.1c00471
   
   for DFT-D4:
   * E. Caldeweyher, C. Bannwarth and S. Grimme, J. Chem. Phys., 2017,
     147, 034112. DOI: 10.1063/1.4993215
   * E. Caldeweyher, S. Ehlert, A. Hansen, H. Neugebauer, S. Spicher,
     C. Bannwarth and S. Grimme, J. Chem. Phys., 2019, 150, 154122.
     DOI: 10.1063/1.5090222
   * E. Caldeweyher, J.-M. Mewes, S. Ehlert and S. Grimme, Phys. Chem. Chem. Phys.
     2020, 22, 8499-8512. DOI: 10.1039/D0CP00502A
   
   for sTDA-xTB:
   * S. Grimme and C. Bannwarth, J. Chem. Phys., 2016, 145, 054103.
     DOI: 10.1063/1.4959605
   
   in the mass-spec context:
   * V. Asgeirsson, C. Bauer and S. Grimme, Chem. Sci., 2017, 8, 4879.
     DOI: 10.1039/c7sc00601b
   * J. Koopman and S. Grimme, ACS Omega 2019, 4, 12, 15120-15133.
     DOI: 10.1021/acsomega.9b02011
   
   for metadynamics refer to:
   * S. Grimme, J. Chem. Theory Comput., 2019, 155, 2847-2862
     DOI: 10.1021/acs.jctc.9b00143
   
   for SPH calculations refer to:
   * S. Spicher and S. Grimme, J. Chem. Theory Comput., 2021, 17, 1701-1714
     DOI: 10.1021/acs.jctc.0c01306
   
   with help from (in alphabetical order)
   P. Atkinson, C. Bannwarth, F. Bohle, G. Brandenburg, E. Caldeweyher
   M. Checinski, S. Dohm, S. Ehlert, S. Ehrlich, I. Gerasimov, C. Hölzer
   A. Katbashev, J. Koopman, C. Lavigne, S. Lehtola, F. März, M. Müller,
   F. Musil, H. Neugebauer, J. Pisarek, C. Plett, P. Pracht, F. Pultar,
   J. Seibert, P. Shushkov, S. Spicher, M. Stahn, M. Steiner, T. Strunk,
   J. Stückrath, T. Rose, and J. Unsleber
   
 * started run on 2023/04/11 at 13:21:50.045     

           -------------------------------------------------
          |                Calculation Setup                |
           -------------------------------------------------

          program call               : /N/u/schandy/BigRed3/bin/xtb-6.5.1/bin/xtb 6GMY_min.xyz --alpb water
          hostname                   : nid00469
          coordinate file            : 6GMY_min.xyz
          omp threads                :                    10

   ID    Z sym.   atoms
    1    8 O      1, 4, 14, 20, 43-45, 48, 51, 53, 59, 75-77, 80, 90, 96,
                  118-120, 123, 127, 136, 156-158, 161, 165, 174, 189-191,
                  194, 204, 210, 232-234, 237, 240, 242, 248, 269-271, 274,
                  277, 279, 285, 300, 302, 304, 310, 313, 338-340, 343, 353,
                  359, 376, 379, 381, 383, 390, 409-411, 414, 416, 418, 422,
                  425, 439-441, 444, 446, 448, 472-474, 477, 479, 481,
                  505-507, 510, 512, 514, 521, 539-541, 544, 546, 548, 552,
                  570-572, 575, 577, 579, 583, 601-603, 606, 608, 610, 617,
                  635-637, 640, 642, 644, 668-670, 673, 675, 677, 684
    2    6 C      2, 3, 5, 7-10, 13, 15-19, 37-41, 46, 47, 49, 54-58, 78, 79,
                  81, 83-86, 89, 91-95, 112-116, 121, 122, 124, 131-135,
                  150-154, 159, 160, 162, 169-173, 192, 193, 195, 197-200,
                  203, 205-209, 226-230, 235, 236, 238, 243-247, 263-267,
                  272, 273, 275, 280-284, 303, 305-309, 311, 312, 315, 317,
                  319, 321, 323, 341, 342, 344, 346-349, 352, 354-358, 377,
                  378, 380, 382, 384, 386, 388, 389, 392, 395, 412, 413, 415,
                  417, 419, 421, 424, 426, 427, 442, 443, 445, 447, 449, 451,
                  453, 454, 457, 459, 475, 476, 478, 480, 482, 484, 486, 487,
                  490, 492, 508, 509, 511, 513, 515, 517, 519, 520, 523, 526,
                  542, 543, 545, 547, 549, 551, 554, 556, 557, 573, 574, 576,
                  578, 580, 582, 585, 587, 588, 604, 605, 607, 609, 611, 613,
                  615, 616, 619, 622, 638, 639, 641, 643, 645, 647, 649, 650,
                  653, 655, 671, 672, 674, 676, 678, 680, 682, 683, 686, 689
    3    7 N      6, 11, 12, 50, 52, 82, 87, 88, 125, 126, 128-130, 163, 164,
                  166-168, 196, 201, 202, 239, 241, 276, 278, 314, 316, 318,
                  320, 322, 345, 350, 351, 385, 387, 391, 393, 394, 420, 423,
                  450, 452, 455, 456, 458, 483, 485, 488, 489, 491, 516, 518,
                  522, 524, 525, 550, 553, 555, 581, 584, 586, 612, 614, 618,
                  620, 621, 646, 648, 651, 652, 654, 679, 681, 685, 687, 688
    4    1 H      21-36, 60-73, 97-111, 137-149, 175-187, 211-225, 249-262,
                  286-299, 324-336, 360-375, 396-407, 428-437, 460-470,
                  493-503, 527-537, 558-568, 589-599, 623-633, 656-666,
                  690-701
    5   15 P      42, 74, 117, 155, 188, 231, 268, 301, 337, 408, 438, 471,
                  504, 538, 569, 600, 634, 667

molecular fragmentation (1/2 indicates fragments):
111111111111111111111111111111111111111111111111111111111111111111111111
111111111111111111111111111111111111111111111111111111111111111111111111
111111111111111111111111111111111111111111111111111111111111111111111111
111111111111111111111111111111111111111111111111111111111111111111111111
111111111111111111111111111111111111111111111111111111111111111111111111
111111111111111222222222222222222222222222222222222222222222222222222222
222222222222222222222222222222222222222222222222222222222222222222222222
222222222222222222222222222222222222222222222222222222222222222222222222
222222222222222222222222222222222222222222222222222222222222222222222222
22222222222222222222222222222222222222222222222222222
# atoms in fragment 1/2:   375   326
 fragment masses (1/2) :     3406.48     3213.94
CMA distance (Bohr)    :   5.472
constraining FC (au)   :  0.0500

           -------------------------------------------------
          |                 G F N 2 - x T B                 |
           -------------------------------------------------

        Reference                      10.1021/acs.jctc.8b01176
      * Hamiltonian:
        H0-scaling (s, p, d)           1.850000    2.230000    2.230000
        zeta-weighting                 0.500000
      * Dispersion:
        s8                             2.700000
        a1                             0.520000
        a2                             5.000000
        s9                             5.000000
      * Repulsion:
        kExp                           1.500000    1.000000
        rExp                           1.000000
      * Coulomb:
        alpha                          2.000000
        third order                    shell-resolved
        anisotropic                    true
        a3                             3.000000
        a5                             4.000000
        cn-shift                       1.200000
        cn-exp                         4.000000
        max-rad                        5.000000

      * Solvation model:               ALPB
        Solvent                        water
        Parameter file                 internal GFN2-xTB/ALPB
        Dielectric constant                8.0200E+01
        Reference state                gsolv [1 M gas/solution]
        Free energy shift                  1.0808E-03 Eh       6.7819E-01 kcal/mol
        Temperature                        2.9815E+02 K
        Density                            1.0000E+00 kg/L
        Solvent mass                       1.8000E+01 g/mol
        Interaction kernel             P16
        Born radius scaling (c1)           1.4744E+00
        Born radii integrator          GBOBC
        Born offset                        0.0000E+00 a0       0.0000E+00 AA
        H-bond correction              true
        Ion screening                  false
        Surface tension                    1.0000E-05 Eh       1.5569E+01 dyn/cm
        Grid points                               230 per atom

          ...................................................
          :                      SETUP                      :
          :.................................................:
          :  # basis functions                2150          :
          :  # atomic orbitals                2132          :
          :  # shells                         1166          :
          :  # electrons                      2388          :
          :  max. iterations                   250          :
          :  Hamiltonian                  GFN2-xTB          :
          :  restarted?                      false          :
          :  GBSA solvation                   true          :
          :  PC potential                    false          :
          :  electronic temp.          300.0000000     K    :
          :  accuracy                    1.0000000          :
          :  -> integral cutoff          0.2500000E+02      :
          :  -> integral neglect         0.1000000E-07      :
          :  -> SCF convergence          0.1000000E-05 Eh   :
          :  -> wf. convergence          0.1000000E-03 e    :
          :  Broyden damping             0.4000000          :
          ...................................................

 iter      E             dE          RMSdq      gap      omega  full diag
   1  -1406.1509440 -0.140615E+04  0.634E+00    0.05       0.0  T
   2  -1407.9058956 -0.175495E+01  0.396E+00    0.18       1.0  T
   3  -1401.4824151  0.642348E+01  0.330E+00    0.02       1.0  T
   4  -1409.6591248 -0.817671E+01  0.221E+00    0.04       1.0  T
   5  -1409.1369830  0.522142E+00  0.190E+00    0.00       1.0  T
   6  -1410.4239314 -0.128695E+01  0.178E+00    0.03       1.0  T
   7  -1411.1547838 -0.730852E+00  0.133E+00    0.00       1.0  T
   8  -1411.2720514 -0.117268E+00  0.129E+00    0.00       1.0  T
   9  -1411.1370772  0.134974E+00  0.139E+00    0.01       1.0  T
  10  -1411.5609764 -0.423899E+00  0.116E+00    0.01       1.0  T
  11  -1411.9993119 -0.438335E+00  0.964E-01    0.00       1.0  T
  12  -1411.8451599  0.154152E+00  0.950E-01    0.01       1.0  T
  13  -1412.0060060 -0.160846E+00  0.793E-01    0.00       1.0  T
  14  -1411.9355930  0.704130E-01  0.871E-01    0.00       1.0  T
  15  -1412.3577241 -0.422131E+00  0.683E-01    0.01       1.0  T
  16  -1412.4202589 -0.625347E-01  0.571E-01    0.01       1.0  T
  17  -1412.3298015  0.904574E-01  0.616E-01    0.00       1.0  T
  18  -1412.4897086 -0.159907E+00  0.510E-01    0.01       1.0  T
  19  -1412.5318960 -0.421873E-01  0.478E-01    0.00       1.0  T
  20  -1412.4915080  0.403880E-01  0.463E-01    0.00       1.0  T
  21  -1412.5054138 -0.139058E-01  0.464E-01    0.00       1.0  T
  22  -1412.5527687 -0.473548E-01  0.432E-01    0.00       1.0  T
  23  -1412.6424803 -0.897117E-01  0.338E-01    0.00       1.0  T
  24  -1412.6621055 -0.196252E-01  0.321E-01    0.01       1.0  T
  25  -1412.6893286 -0.272230E-01  0.270E-01    0.00       1.0  T
  26  -1412.7016581 -0.123295E-01  0.250E-01    0.00       1.0  T
  27  -1412.7048761 -0.321806E-02  0.241E-01    0.00       1.0  T
  28  -1412.7031730  0.170310E-02  0.237E-01    0.00       1.0  T
  29  -1412.7352825 -0.321095E-01  0.172E-01    0.01       1.0  T
  30  -1412.7350841  0.198365E-03  0.172E-01    0.00       1.0  T
  31  -1412.7431046 -0.802047E-02  0.147E-01    0.00       1.0  T
  32  -1412.7557237 -0.126191E-01  0.112E-01    0.00       1.0  T
  33  -1412.7509807  0.474308E-02  0.129E-01    0.00       1.0  T
  34  -1412.7611742 -0.101936E-01  0.837E-02    0.01       1.0  T
  35  -1412.7621488 -0.974633E-03  0.805E-02    0.00       1.0  T
  36  -1412.7649651 -0.281624E-02  0.627E-02    0.00       1.0  T
  37  -1412.7661577 -0.119257E-02  0.526E-02    0.00       1.0  T
  38  -1412.7661435  0.141719E-04  0.516E-02    0.00       1.0  T
  39  -1412.7673311 -0.118765E-02  0.404E-02    0.01       1.0  T
  40  -1412.7673949 -0.637668E-04  0.382E-02    0.01       1.0  T
  41  -1412.7677897 -0.394806E-03  0.327E-02    0.01       1.0  T
  42  -1412.7677066  0.830607E-04  0.337E-02    0.01       1.0  T
  43  -1412.7683408 -0.634131E-03  0.249E-02    0.01       1.0  T
  44  -1412.7687178 -0.377025E-03  0.171E-02    0.01       1.0  T
  45  -1412.7685739  0.143916E-03  0.195E-02    0.01       1.0  T
  46  -1412.7688252 -0.251269E-03  0.139E-02    0.01       1.0  T
  47  -1412.7688910 -0.658165E-04  0.115E-02    0.01       1.0  T
  48  -1412.7689070 -0.160194E-04  0.106E-02    0.01       1.0  T
  49  -1412.7689048  0.222845E-05  0.103E-02    0.01       1.0  T
  50  -1412.7689100 -0.522574E-05  0.101E-02    0.01       1.0  T
  51  -1412.7689675 -0.574855E-04  0.748E-03    0.01       1.0  T
  52  -1412.7689817 -0.142412E-04  0.669E-03    0.01       1.0  T
  53  -1412.7689920 -0.102894E-04  0.589E-03    0.01       1.0  T
  54  -1412.7690149 -0.228927E-04  0.397E-03    0.01       1.0  T
  55  -1412.7690151 -0.168758E-06  0.403E-03    0.01       1.0  T
  56  -1412.7690239 -0.883236E-05  0.287E-03    0.01       1.3  T
  57  -1412.7690257 -0.181420E-05  0.266E-03    0.01       1.4  T
  58  -1412.7690276 -0.192934E-05  0.220E-03    0.01       1.7  T
  59  -1412.7690306 -0.299116E-05  0.157E-03    0.01       2.4  T
  60  -1412.7690301  0.549258E-06  0.166E-03    0.01       2.3  T
  61  -1412.7690317 -0.157660E-05  0.128E-03    0.01       2.9  T
  62  -1412.7690325 -0.796755E-06  0.938E-04    0.01       4.0  T
  63  -1412.7690325 -0.966140E-07  0.915E-04    0.01       4.1  T

   *** convergence criteria satisfied after 63 iterations ***

         #    Occupation            Energy/Eh            Energy/eV
      -------------------------------------------------------------
         1        2.0000           -0.7642473             -20.7962
       ...           ...                  ...                  ...
      1188        1.5455           -0.4202509             -11.4356
      1189        1.5069           -0.4201495             -11.4328
      1190        1.4582           -0.4200289             -11.4296
      1191        1.4311           -0.4199646             -11.4278
      1192        1.4106           -0.4199172             -11.4265
      1193        1.3887           -0.4198676             -11.4252
      1194        1.3793           -0.4198467             -11.4246 (HOMO)
      1195        1.2567           -0.4195871             -11.4175 (LUMO)
      1196        1.2068           -0.4194869             -11.4148
      1197        1.1693           -0.4194130             -11.4128
      1198        1.1153           -0.4193082             -11.4100
      1199        1.0333           -0.4191514             -11.4057
       ...           ...                  ...                  ...
      2132                          1.2981373              35.3241
      -------------------------------------------------------------
                  HL-Gap            0.0002597 Eh            0.0071 eV
             Fermi-level           -0.4190882 Eh          -11.4040 eV

 SCC (total)                   0 d,  0 h,  0 min, 39.034 sec
 SCC setup                      ...        0 min,  0.067 sec (  0.173%)
 Dispersion                     ...        0 min,  0.226 sec (  0.580%)
 classical contributions        ...        0 min,  0.004 sec (  0.009%)
 integral evaluation            ...        0 min,  0.538 sec (  1.378%)
 iterations                     ...        0 min, 36.188 sec ( 92.709%)
 molecular gradient             ...        0 min,  1.927 sec (  4.937%)
 printout                       ...        0 min,  0.084 sec (  0.215%)

         :::::::::::::::::::::::::::::::::::::::::::::::::::::
         ::                     SUMMARY                     ::
         :::::::::::::::::::::::::::::::::::::::::::::::::::::
         :: total energy           -1399.395735141498 Eh    ::
         :: total w/o Gsasa/hb     -1399.310916504310 Eh    ::
         :: gradient norm              0.533106989105 Eh/a0 ::
         :: HOMO-LUMO gap              0.007065814848 eV    ::
         ::.................................................::
         :: SCC energy             -1412.769032549136 Eh    ::
         :: -> isotropic ES            7.167858378034 Eh    ::
         :: -> anisotropic ES         -1.068897925268 Eh    ::
         :: -> anisotropic XC          0.272150064679 Eh    ::
         :: -> dispersion             -1.261646013127 Eh    ::
         :: -> Gsolv                  -2.851311217214 Eh    ::
         ::    -> Gelec               -2.766492580026 Eh    ::
         ::    -> Gsasa                0.073196589097 Eh    ::
         ::    -> Ghb                 -0.159095985983 Eh    ::
         ::    -> Gshift               0.001080759698 Eh    ::
         :: repulsion energy          13.254524698225 Eh    ::
         :: add. restraining           0.000000000000 Eh    ::
         :: total charge               0.000000000000 e     ::
         :::::::::::::::::::::::::::::::::::::::::::::::::::::

           -------------------------------------------------
          |                Property Printout                |
           -------------------------------------------------

    * Orbital Energies and Occupations

         #    Occupation            Energy/Eh            Energy/eV
      -------------------------------------------------------------
         1        2.0000           -0.7642473             -20.7962
       ...           ...                  ...                  ...
      1182        1.7049           -0.4207544             -11.4493
      1183        1.6562           -0.4205820             -11.4446
      1184        1.6454           -0.4205462             -11.4436
      1185        1.6369           -0.4205189             -11.4429
      1186        1.5837           -0.4203575             -11.4385
      1187        1.5632           -0.4202994             -11.4369
      1188        1.5455           -0.4202509             -11.4356
      1189        1.5069           -0.4201495             -11.4328
      1190        1.4582           -0.4200289             -11.4296
      1191        1.4311           -0.4199646             -11.4278
      1192        1.4106           -0.4199172             -11.4265
      1193        1.3887           -0.4198676             -11.4252
      1194        1.3793           -0.4198467             -11.4246 (HOMO)
      1195        1.2567           -0.4195871             -11.4175 (LUMO)
      1196        1.2068           -0.4194869             -11.4148
      1197        1.1693           -0.4194130             -11.4128
      1198        1.1153           -0.4193082             -11.4100
      1199        1.0333           -0.4191514             -11.4057
      1200        1.0244           -0.4191345             -11.4052
      1201        0.9406           -0.4189752             -11.4009
      1202        0.8564           -0.4188135             -11.3965
      1203        0.4810           -0.4179956             -11.3742
      1204                         -0.2994761              -8.1492
      1205                         -0.2994753              -8.1491
       ...                                ...                  ...
      2132                          1.2981373              35.3241
      -------------------------------------------------------------
                  HL-Gap            0.0002597 Eh            0.0071 eV
             Fermi-level           -0.4190882 Eh          -11.4040 eV

 * generalized Born model for continuum solvation

     #   Z     Born rad/Å   SASA/Å²    H-bond
     1   8 O        2.082    11.752    -0.001
     2   6 C        2.632     0.238    -0.000
     3   6 C        2.747     0.066    -0.000
     4   8 O        2.396     8.753    -0.001
     5   6 C        2.700     0.397    -0.000
     6   7 N        2.700     0.059    -0.000
     7   6 C        2.735     3.170    -0.000
     8   6 C        2.746     0.703    -0.000
     9   6 C        2.397     2.514    -0.000
    10   6 C        2.786     0.009    -0.000
    11   7 N        2.286     0.104    -0.000
    12   7 N        2.545     1.732    -0.000
    13   6 C        2.708     0.011    -0.000
    14   8 O        2.192    10.208    -0.001
    15   6 C        2.945     0.000    -0.000
    16   6 C        2.683     0.041    -0.000
    17   6 C        2.745     0.007    -0.000
    18   6 C        2.643     1.625    -0.000
    19   6 C        2.467     5.539    -0.001
    20   8 O        2.446     2.848    -0.000
    21   1 H        1.741    23.684    -0.040
    22   1 H        1.955    16.553    -0.028
    23   1 H        1.958    11.653    -0.020
    24   1 H        2.050     2.376    -0.004
    25   1 H        1.861    15.341    -0.026
    26   1 H        1.861    18.261    -0.031
    27   1 H        1.871    13.659    -0.023
    28   1 H        2.019     0.677    -0.001
    29   1 H        1.918     9.531    -0.016
    30   1 H        2.113     0.019    -0.000
    31   1 H        1.990    10.350    -0.017
    32   1 H        2.161     0.000     0.000
    33   1 H        2.016     5.265    -0.009
    34   1 H        1.960    11.647    -0.020
    35   1 H        1.926    14.163    -0.024
    36   1 H        1.869    22.075    -0.037
    37   6 C        2.445     2.023    -0.000
    38   6 C        2.837     0.000     0.000
    39   6 C        2.778     0.001    -0.000
    40   6 C        2.720     0.000     0.000
    41   6 C        2.738     0.433    -0.000
    42  15 P        2.827     7.669    -0.002
    43   8 O        2.126    17.107    -0.002
    44   8 O        2.081    26.982    -0.003
    45   8 O        2.478     0.507    -0.000
    46   6 C        2.832     0.027    -0.000
    47   6 C        2.841     0.032    -0.000
    48   8 O        2.511     1.788    -0.000
    49   6 C        2.755     0.100    -0.000
    50   7 N        2.766     0.000     0.000
    51   8 O        2.207     6.707    -0.001
    52   7 N        2.557     0.006    -0.000
    53   8 O        2.215     8.457    -0.001
    54   6 C        2.977     0.000    -0.000
    55   6 C        2.707     0.103    -0.000
    56   6 C        2.748     0.075    -0.000
    57   6 C        2.684     1.706    -0.000
    58   6 C        2.503     4.831    -0.000
    59   8 O        2.449     3.825    -0.000
    60   1 H        1.920     4.153    -0.007
    61   1 H        1.917     6.640    -0.011
    62   1 H        1.883    14.892    -0.025
    63   1 H        2.160     0.000     0.000
    64   1 H        1.990    12.662    -0.021
    65   1 H        1.984    11.334    -0.019
    66   1 H        2.279     0.002    -0.000
    67   1 H        2.114     0.004    -0.000
    68   1 H        1.999    11.089    -0.019
    69   1 H        2.123     0.001    -0.000
    70   1 H        2.012     7.723    -0.013
    71   1 H        1.983    11.894    -0.020
    72   1 H        1.932    14.904    -0.025
    73   1 H        1.891    18.412    -0.031
    74  15 P        2.840     6.957    -0.001
    75   8 O        2.117    19.675    -0.002
    76   8 O        2.093    24.067    -0.003
    77   8 O        2.506     0.020    -0.000
    78   6 C        2.851     0.031    -0.000
    79   6 C        2.843     0.024    -0.000
    80   8 O        2.496     2.839    -0.000
    81   6 C        2.763     0.102    -0.000
    82   7 N        2.796     0.000     0.000
    83   6 C        2.859     0.002    -0.000
    84   6 C        2.854     0.499    -0.000
    85   6 C        2.463     2.034    -0.000
    86   6 C        2.855     0.162    -0.000
    87   7 N        2.289     0.639    -0.000
    88   7 N        2.643     0.000     0.000
    89   6 C        2.797     0.000     0.000
    90   8 O        2.274     4.204    -0.000
    91   6 C        2.983     0.000     0.000
    92   6 C        2.711     0.161    -0.000
    93   6 C        2.752     0.414    -0.000
    94   6 C        2.692     1.597    -0.000
    95   6 C        2.520     4.160    -0.000
    96   8 O        2.455     3.252    -0.000
    97   1 H        1.993    12.400    -0.021
    98   1 H        1.990    10.257    -0.017
    99   1 H        2.157     0.000     0.000
   100   1 H        1.914     6.455    -0.011
   101   1 H        1.946     2.896    -0.005
   102   1 H        1.888    18.522    -0.031
   103   1 H        1.975     1.015    -0.002
   104   1 H        1.924    12.397    -0.021
   105   1 H        2.107     0.117    -0.000
   106   1 H        2.006    10.806    -0.018
   107   1 H        2.118     2.408    -0.004
   108   1 H        2.012     8.552    -0.014
   109   1 H        1.986    12.308    -0.021
   110   1 H        1.940    14.661    -0.025
   111   1 H        1.903    16.121    -0.027
   112   6 C        2.782     0.670    -0.000
   113   6 C        2.931     0.000    -0.000
   114   6 C        3.288     0.000     0.000
   115   6 C        3.099     0.717    -0.000
   116   6 C        2.762     0.525    -0.000
   117  15 P        2.843     7.081    -0.001
   118   8 O        2.138    15.989    -0.002
   119   8 O        2.088    26.419    -0.003
   120   8 O        2.488     0.284    -0.000
   121   6 C        2.846     0.006    -0.000
   122   6 C        2.856     0.028    -0.000
   123   8 O        2.516     2.637    -0.000
   124   6 C        2.791     0.118    -0.000
   125   7 N        2.951     0.000     0.000
   126   7 N        2.533    10.846    -0.001
   127   8 O        2.208     9.255    -0.001
   128   7 N        2.721     0.000     0.000
   129   7 N        2.363     0.074    -0.000
   130   7 N        2.697     1.657    -0.000
   131   6 C        2.991     0.000     0.000
   132   6 C        2.730     0.280    -0.000
   133   6 C        2.752     0.438    -0.000
   134   6 C        2.682     1.615    -0.000
   135   6 C        2.512     4.210    -0.000
   136   8 O        2.451     3.743    -0.000
   137   1 H        2.078     0.352    -0.001
   138   1 H        1.999    12.336    -0.021
   139   1 H        2.017     8.058    -0.014
   140   1 H        2.360     0.000     0.000
   141   1 H        1.952     9.595    -0.016
   142   1 H        2.057     0.359    -0.001
   143   1 H        2.124     0.698    -0.001
   144   1 H        2.014    11.123    -0.019
   145   1 H        2.108     2.881    -0.005
   146   1 H        2.021     6.314    -0.011
   147   1 H        1.976    16.260    -0.027
   148   1 H        1.939    15.043    -0.025
   149   1 H        1.896    18.493    -0.031
   150   6 C        2.832     0.119    -0.000
   151   6 C        2.869     0.000    -0.000
   152   6 C        3.298     0.000     0.000
   153   6 C        3.166     0.000    -0.000
   154   6 C        2.792     0.002    -0.000
   155  15 P        2.846     6.806    -0.001
   156   8 O        2.123    18.858    -0.002
   157   8 O        2.099    24.512    -0.003
   158   8 O        2.522     0.000    -0.000
   159   6 C        2.859     0.006    -0.000
   160   6 C        2.845     0.044    -0.000
   161   8 O        2.493     4.651    -0.001
   162   6 C        2.786     0.162    -0.000
   163   7 N        2.986     0.000     0.000
   164   7 N        2.578     6.321    -0.000
   165   8 O        2.226     8.054    -0.001
   166   7 N        2.706     0.000     0.000
   167   7 N        2.327     0.058    -0.000
   168   7 N        2.648     2.886    -0.000
   169   6 C        2.998     0.000    -0.000
   170   6 C        2.725     0.280    -0.000
   171   6 C        2.775     0.010    -0.000
   172   6 C        2.707     1.423    -0.000
   173   6 C        2.521     3.843    -0.000
   174   8 O        2.459     3.647    -0.000
   175   1 H        2.104     0.057    -0.000
   176   1 H        1.991    13.854    -0.023
   177   1 H        2.004    10.779    -0.018
   178   1 H        2.348     0.000     0.000
   179   1 H        1.931    10.855    -0.018
   180   1 H        2.030     0.332    -0.001
   181   1 H        2.121     0.275    -0.000
   182   1 H        2.004    11.892    -0.020
   183   1 H        2.155     0.000     0.000
   184   1 H        2.025     6.221    -0.010
   185   1 H        1.998    10.424    -0.018
   186   1 H        1.941    14.667    -0.025
   187   1 H        1.904    16.644    -0.028
   188  15 P        2.843     6.671    -0.001
   189   8 O        2.117    20.307    -0.002
   190   8 O        2.096    23.670    -0.003
   191   8 O        2.504     0.032    -0.000
   192   6 C        2.854     0.011    -0.000
   193   6 C        2.847     0.039    -0.000
   194   8 O        2.515     2.974    -0.000
   195   6 C        2.803     0.106    -0.000
   196   7 N        2.848     0.000     0.000
   197   6 C        2.882     0.006    -0.000
   198   6 C        2.876     0.003    -0.000
   199   6 C        2.472     1.664    -0.000
   200   6 C        2.869     0.000     0.000
   201   7 N        2.287     0.858    -0.000
   202   7 N        2.647     0.000     0.000
   203   6 C        2.824     0.000     0.000
   204   8 O        2.281     3.354    -0.000
   205   6 C        2.998     0.000     0.000
   206   6 C        2.719     0.100    -0.000
   207   6 C        2.762     0.017    -0.000
   208   6 C        2.690     1.620    -0.000
   209   6 C        2.529     4.106    -0.000
   210   8 O        2.465     3.371    -0.000
   211   1 H        1.994    13.121    -0.022
   212   1 H        2.039     5.173    -0.009
   213   1 H        2.143     0.000     0.000
   214   1 H        1.922     6.611    -0.011
   215   1 H        1.947     5.974    -0.010
   216   1 H        1.895    14.334    -0.024
   217   1 H        1.972     1.392    -0.002
   218   1 H        1.922    14.146    -0.024
   219   1 H        2.106     0.045    -0.000
   220   1 H        2.009    11.181    -0.019
   221   1 H        2.143     0.000    -0.000
   222   1 H        2.018     6.699    -0.011
   223   1 H        1.982    13.022    -0.022
   224   1 H        1.944    13.833    -0.023
   225   1 H        1.908    14.982    -0.025
   226   6 C        2.462     2.008    -0.000
   227   6 C        2.843     0.000     0.000
   228   6 C        2.786     0.000    -0.000
   229   6 C        2.703     0.000     0.000
   230   6 C        2.792     0.000     0.000
   231  15 P        2.845     7.069    -0.001
   232   8 O        2.123    18.916    -0.002
   233   8 O        2.095    24.233    -0.003
   234   8 O        2.505     0.014    -0.000
   235   6 C        2.853     0.010    -0.000
   236   6 C        2.850     0.021    -0.000
   237   8 O        2.511     2.790    -0.000
   238   6 C        2.786     0.092    -0.000
   239   7 N        2.797     0.000     0.000
   240   8 O        2.190     8.603    -0.001
   241   7 N        2.563     0.000     0.000
   242   8 O        2.263     4.278    -0.000
   243   6 C        2.993     0.000    -0.000
   244   6 C        2.705     0.169    -0.000
   245   6 C        2.771     0.013    -0.000
   246   6 C        2.701     1.334    -0.000
   247   6 C        2.523     4.074    -0.000
   248   8 O        2.467     3.423    -0.000
   249   1 H        1.959     3.031    -0.005
   250   1 H        1.886    16.978    -0.029
   251   1 H        1.931     4.803    -0.008
   252   1 H        2.140     0.000     0.000
   253   1 H        1.997    12.225    -0.021
   254   1 H        2.024     5.836    -0.010
   255   1 H        2.272     0.000     0.000
   256   1 H        2.091     0.193    -0.000
   257   1 H        2.000    12.050    -0.020
   258   1 H        2.149     0.000     0.000
   259   1 H        2.024     5.786    -0.010
   260   1 H        1.990    11.240    -0.019
   261   1 H        1.944    13.596    -0.023
   262   1 H        1.904    16.416    -0.028
   263   6 C        2.459     2.420    -0.000
   264   6 C        2.817     0.012    -0.000
   265   6 C        2.775     1.059    -0.000
   266   6 C        2.706     0.033    -0.000
   267   6 C        2.769     0.000     0.000
   268  15 P        2.841     6.661    -0.001
   269   8 O        2.118    20.082    -0.002
   270   8 O        2.095    23.435    -0.003
   271   8 O        2.499     0.040    -0.000
   272   6 C        2.845     0.006    -0.000
   273   6 C        2.843     0.023    -0.000
   274   8 O        2.500     2.620    -0.000
   275   6 C        2.762     0.064    -0.000
   276   7 N        2.760     0.000     0.000
   277   8 O        2.200     7.092    -0.001
   278   7 N        2.566     0.000     0.000
   279   8 O        2.245     6.315    -0.001
   280   6 C        2.984     0.000     0.000
   281   6 C        2.704     0.119    -0.000
   282   6 C        2.744     0.443    -0.000
   283   6 C        2.678     1.793    -0.000
   284   6 C        2.520     4.323    -0.000
   285   8 O        2.465     2.991    -0.000
   286   1 H        1.883    18.861    -0.032
   287   1 H        1.926     5.897    -0.010
   288   1 H        1.964     2.092    -0.004
   289   1 H        2.121     0.000    -0.000
   290   1 H        1.995    12.890    -0.022
   291   1 H        1.997    10.759    -0.018
   292   1 H        2.283     0.000     0.000
   293   1 H        2.106     0.217    -0.000
   294   1 H        2.004    11.056    -0.019
   295   1 H        2.110     3.053    -0.005
   296   1 H        2.013     7.515    -0.013
   297   1 H        1.974    14.917    -0.025
   298   1 H        1.941    13.913    -0.023
   299   1 H        1.904    15.658    -0.026
   300   8 O        2.122    18.567    -0.002
   301  15 P        2.840     7.037    -0.001
   302   8 O        2.094    24.453    -0.003
   303   6 C        2.510     4.277    -0.000
   304   8 O        2.501     0.004    -0.000
   305   6 C        2.842     0.014    -0.000
   306   6 C        2.686     1.570    -0.000
   307   6 C        2.834     0.031    -0.000
   308   6 C        2.968     0.000     0.000
   309   6 C        2.740     0.149    -0.000
   310   8 O        2.438     3.971    -0.000
   311   6 C        2.708     0.339    -0.000
   312   6 C        2.762     0.197    -0.000
   313   8 O        2.481     4.107    -0.000
   314   7 N        2.921     0.000     0.000
   315   6 C        3.247     0.000     0.000
   316   7 N        2.562     4.709    -0.000
   317   6 C        2.792     0.071    -0.000
   318   7 N        2.719     0.000     0.000
   319   6 C        2.952     0.000     0.000
   320   7 N        2.316     0.203    -0.000
   321   6 C        3.218     0.000     0.000
   322   7 N        2.559     4.185    -0.000
   323   6 C        2.789     0.269    -0.000
   324   1 H        1.935    15.291    -0.026
   325   1 H        1.898    17.108    -0.029
   326   1 H        1.985    12.156    -0.020
   327   1 H        1.984    13.933    -0.023
   328   1 H        2.103     0.003    -0.000
   329   1 H        2.010     8.459    -0.014
   330   1 H        2.098     0.676    -0.001
   331   1 H        2.001    11.451    -0.019
   332   1 H        1.990    13.866    -0.023
   333   1 H        2.062     3.418    -0.006
   334   1 H        1.971     2.721    -0.005
   335   1 H        1.937     8.990    -0.015
   336   1 H        2.094     0.112    -0.000
   337  15 P        2.832     7.505    -0.002
   338   8 O        2.124    17.775    -0.002
   339   8 O        2.087    25.180    -0.003
   340   8 O        2.462     0.288    -0.000
   341   6 C        2.802     0.004    -0.000
   342   6 C        2.790     0.003    -0.000
   343   8 O        2.502     0.841    -0.000
   344   6 C        2.748     0.026    -0.000
   345   7 N        2.772     0.000     0.000
   346   6 C        2.827     0.498    -0.000
   347   6 C        2.866     0.134    -0.000
   348   6 C        2.463     2.274    -0.000
   349   6 C        2.873     0.000     0.000
   350   7 N        2.291     0.447    -0.000
   351   7 N        2.609     0.005    -0.000
   352   6 C        2.764     0.000     0.000
   353   8 O        2.224     4.268    -0.000
   354   6 C        2.759     0.000     0.000
   355   6 C        2.617     0.222    -0.000
   356   6 C        2.661     0.043    -0.000
   357   6 C        2.641     1.670    -0.000
   358   6 C        2.496     4.203    -0.000
   359   8 O        2.127    11.181    -0.001
   360   1 H        1.980    12.134    -0.020
   361   1 H        2.006     9.008    -0.015
   362   1 H        2.080     0.745    -0.001
   363   1 H        1.886    12.257    -0.021
   364   1 H        1.915     7.566    -0.013
   365   1 H        1.935     7.314    -0.012
   366   1 H        1.947     5.961    -0.010
   367   1 H        1.922    12.454    -0.021
   368   1 H        2.041     2.945    -0.005
   369   1 H        1.943    15.602    -0.026
   370   1 H        2.076     0.236    -0.000
   371   1 H        1.954     7.245    -0.012
   372   1 H        1.957    17.325    -0.029
   373   1 H        1.919    15.461    -0.026
   374   1 H        1.895    16.030    -0.027
   375   1 H        1.768    17.793    -0.030
   376   8 O        2.041    14.667    -0.002
   377   6 C        2.345     1.686    -0.000
   378   6 C        2.553     0.147    -0.000
   379   8 O        2.343     9.978    -0.001
   380   6 C        2.664     0.000     0.000
   381   8 O        2.428     0.024    -0.000
   382   6 C        2.604     0.029    -0.000
   383   8 O        2.121    13.346    -0.001
   384   6 C        2.676     0.551    -0.000
   385   7 N        2.764     0.719    -0.000
   386   6 C        2.648     3.522    -0.000
   387   7 N        2.440    11.460    -0.001
   388   6 C        2.925     3.374    -0.000
   389   6 C        2.603     4.516    -0.000
   390   8 O        2.115    20.411    -0.002
   391   7 N        2.435     2.016    -0.000
   392   6 C        2.638     4.214    -0.000
   393   7 N        2.196     3.800    -0.000
   394   7 N        2.478     7.122    -0.000
   395   6 C        3.012     3.500    -0.000
   396   1 H        1.825    20.777    -0.035
   397   1 H        1.868    10.344    -0.017
   398   1 H        1.945    13.501    -0.023
   399   1 H        2.049     0.782    -0.001
   400   1 H        2.067     0.001    -0.000
   401   1 H        1.824     2.781    -0.005
   402   1 H        1.982    12.773    -0.021
   403   1 H        1.963     6.738    -0.011
   404   1 H        1.963    13.337    -0.022
   405   1 H        1.879    11.866    -0.020
   406   1 H        1.858    19.936    -0.033
   407   1 H        1.771    11.826    -0.020
   408  15 P        2.790     6.234    -0.001
   409   8 O        2.085    21.497    -0.002
   410   8 O        2.098    19.275    -0.002
   411   8 O        2.288     5.669    -0.001
   412   6 C        2.429     0.889    -0.000
   413   6 C        2.572     0.113    -0.000
   414   8 O        2.427     0.560    -0.000
   415   6 C        2.658     0.001    -0.000
   416   8 O        2.340     4.947    -0.001
   417   6 C        2.628     0.000    -0.000
   418   8 O        2.139     6.294    -0.001
   419   6 C        2.715     0.032    -0.000
   420   7 N        2.697     0.002    -0.000
   421   6 C        2.721     0.000    -0.000
   422   8 O        2.236     2.704    -0.000
   423   7 N        2.517     0.000     0.000
   424   6 C        2.583     1.492    -0.000
   425   8 O        2.138    14.070    -0.002
   426   6 C        2.565     4.478    -0.000
   427   6 C        2.680     1.938    -0.000
   428   1 H        1.892    13.212    -0.022
   429   1 H        1.859    19.003    -0.032
   430   1 H        1.947    15.098    -0.025
   431   1 H        2.054     4.384    -0.007
   432   1 H        2.093     0.112    -0.000
   433   1 H        1.790    10.338    -0.017
   434   1 H        1.986     7.696    -0.013
   435   1 H        2.285     0.000     0.000
   436   1 H        1.935    15.969    -0.027
   437   1 H        2.094     1.065    -0.002
   438  15 P        2.773     9.979    -0.002
   439   8 O        2.073    26.526    -0.003
   440   8 O        2.087    26.149    -0.003
   441   8 O        2.330     1.106    -0.000
   442   6 C        2.448     0.391    -0.000
   443   6 C        2.580     0.068    -0.000
   444   8 O        2.421     1.081    -0.000
   445   6 C        2.683     0.010    -0.000
   446   8 O        2.349     4.840    -0.001
   447   6 C        2.643     0.073    -0.000
   448   8 O        2.124    12.275    -0.001
   449   6 C        2.726     0.083    -0.000
   450   7 N        2.883     0.000     0.000
   451   6 C        2.728     2.164    -0.000
   452   7 N        2.511    10.989    -0.001
   453   6 C        3.188     0.066    -0.000
   454   6 C        2.945     0.000    -0.000
   455   7 N        2.314     0.208    -0.000
   456   7 N        2.721     0.000     0.000
   457   6 C        2.804     0.084    -0.000
   458   7 N        2.563     4.407    -0.000
   459   6 C        3.231     0.000     0.000
   460   1 H        1.896    11.464    -0.019
   461   1 H        1.885    13.937    -0.023
   462   1 H        1.954    14.130    -0.024
   463   1 H        2.098     2.651    -0.004
   464   1 H        2.116     0.000    -0.000
   465   1 H        1.809     6.888    -0.012
   466   1 H        1.987    13.107    -0.022
   467   1 H        2.021     3.555    -0.006
   468   1 H        2.000     0.779    -0.001
   469   1 H        1.925    14.420    -0.024
   470   1 H        2.060     4.110    -0.007
   471  15 P        2.787     9.968    -0.002
   472   8 O        2.074    27.853    -0.003
   473   8 O        2.102    24.092    -0.003
   474   8 O        2.356     0.911    -0.000
   475   6 C        2.465     0.395    -0.000
   476   6 C        2.590     0.056    -0.000
   477   8 O        2.450     3.248    -0.000
   478   6 C        2.691     0.000     0.000
   479   8 O        2.359     4.544    -0.001
   480   6 C        2.641     0.083    -0.000
   481   8 O        2.125    13.256    -0.001
   482   6 C        2.757     0.083    -0.000
   483   7 N        2.946     0.000     0.000
   484   6 C        2.784     2.285    -0.000
   485   7 N        2.554    10.322    -0.001
   486   6 C        3.244     0.198    -0.000
   487   6 C        2.923     0.049    -0.000
   488   7 N        2.295     0.573    -0.000
   489   7 N        2.686     0.000     0.000
   490   6 C        2.799     0.050    -0.000
   491   7 N        2.582     3.435    -0.000
   492   6 C        3.305     0.000    -0.000
   493   1 H        1.908     6.832    -0.011
   494   1 H        1.893    13.058    -0.022
   495   1 H        1.952    14.982    -0.025
   496   1 H        2.098     2.916    -0.005
   497   1 H        2.107     0.033    -0.000
   498   1 H        1.805     7.309    -0.012
   499   1 H        2.011    10.121    -0.017
   500   1 H        2.065     0.471    -0.001
   501   1 H        1.971     1.692    -0.003
   502   1 H        1.921    16.967    -0.028
   503   1 H        2.070     1.307    -0.002
   504  15 P        2.788     9.381    -0.002
   505   8 O        2.076    27.429    -0.003
   506   8 O        2.102    24.536    -0.003
   507   8 O        2.367     0.358    -0.000
   508   6 C        2.471     0.446    -0.000
   509   6 C        2.586     0.125    -0.000
   510   8 O        2.444     3.924    -0.000
   511   6 C        2.697     0.000     0.000
   512   8 O        2.363     4.641    -0.001
   513   6 C        2.654     0.007    -0.000
   514   8 O        2.131     7.819    -0.001
   515   6 C        2.770     0.050    -0.000
   516   7 N        2.957     0.000     0.000
   517   6 C        2.794     1.801    -0.000
   518   7 N        2.554    10.904    -0.001
   519   6 C        3.137     0.045    -0.000
   520   6 C        2.770     0.010    -0.000
   521   8 O        2.204    10.181    -0.001
   522   7 N        2.696     0.000     0.000
   523   6 C        2.897     0.000     0.000
   524   7 N        2.359     0.035    -0.000
   525   7 N        2.677     1.429    -0.000
   526   6 C        3.299     0.000     0.000
   527   1 H        1.905     7.027    -0.012
   528   1 H        1.897    12.600    -0.021
   529   1 H        1.947    13.536    -0.023
   530   1 H        2.109     1.930    -0.003
   531   1 H        2.127     0.000    -0.000
   532   1 H        1.800    14.635    -0.025
   533   1 H        2.021     8.733    -0.015
   534   1 H        2.071     0.389    -0.001
   535   1 H        2.321     0.000     0.000
   536   1 H        2.059     0.049    -0.000
   537   1 H        1.958     6.473    -0.011
   538  15 P        2.791     9.121    -0.002
   539   8 O        2.078    27.480    -0.003
   540   8 O        2.102    23.431    -0.003
   541   8 O        2.373     0.326    -0.000
   542   6 C        2.482     0.463    -0.000
   543   6 C        2.593     0.119    -0.000
   544   8 O        2.467     2.074    -0.000
   545   6 C        2.692     0.000     0.000
   546   8 O        2.361     4.821    -0.001
   547   6 C        2.637     0.000     0.000
   548   8 O        2.129     7.892    -0.001
   549   6 C        2.768     0.016    -0.000
   550   7 N        2.816     0.000     0.000
   551   6 C        2.830     0.000     0.000
   552   8 O        2.276     1.768    -0.000
   553   7 N        2.674     0.000     0.000
   554   6 C        2.847     0.000     0.000
   555   7 N        2.299     0.222    -0.000
   556   6 C        2.725     0.377    -0.000
   557   6 C        2.771     0.534    -0.000
   558   1 H        1.913     8.682    -0.015
   559   1 H        1.908    10.721    -0.018
   560   1 H        1.956    15.989    -0.027
   561   1 H        2.103     2.332    -0.004
   562   1 H        2.106     0.000     0.000
   563   1 H        1.784    13.629    -0.023
   564   1 H        2.029     4.298    -0.007
   565   1 H        1.987     1.320    -0.002
   566   1 H        1.912    15.506    -0.026
   567   1 H        1.988    13.127    -0.022
   568   1 H        2.068     0.793    -0.001
   569  15 P        2.779     9.644    -0.002
   570   8 O        2.073    27.589    -0.003
   571   8 O        2.092    24.640    -0.003
   572   8 O        2.339     1.247    -0.000
   573   6 C        2.469     0.358    -0.000
   574   6 C        2.593     0.062    -0.000
   575   8 O        2.456     0.744    -0.000
   576   6 C        2.689     0.000     0.000
   577   8 O        2.363     4.193    -0.000
   578   6 C        2.642     0.000     0.000
   579   8 O        2.131     7.080    -0.001
   580   6 C        2.757     0.023    -0.000
   581   7 N        2.783     0.000    -0.000
   582   6 C        2.821     0.000     0.000
   583   8 O        2.300     1.704    -0.000
   584   7 N        2.649     0.000     0.000
   585   6 C        2.800     0.455    -0.000
   586   7 N        2.283     0.796    -0.000
   587   6 C        2.706     3.408    -0.000
   588   6 C        2.744     1.687    -0.000
   589   1 H        1.917     8.506    -0.014
   590   1 H        1.893    13.250    -0.022
   591   1 H        1.966    14.454    -0.024
   592   1 H        2.097     2.181    -0.004
   593   1 H        2.105     0.000    -0.000
   594   1 H        1.783    13.724    -0.023
   595   1 H        2.023     3.201    -0.005
   596   1 H        1.977     1.003    -0.002
   597   1 H        1.909    16.009    -0.027
   598   1 H        1.991    13.391    -0.022
   599   1 H        2.052     2.087    -0.004
   600  15 P        2.785     9.534    -0.002
   601   8 O        2.073    27.990    -0.003
   602   8 O        2.101    23.817    -0.003
   603   8 O        2.344     1.141    -0.000
   604   6 C        2.461     0.438    -0.000
   605   6 C        2.585     0.075    -0.000
   606   8 O        2.438     1.593    -0.000
   607   6 C        2.682     0.001    -0.000
   608   8 O        2.353     4.560    -0.001
   609   6 C        2.651     0.009    -0.000
   610   8 O        2.133    12.365    -0.001
   611   6 C        2.757     0.053    -0.000
   612   7 N        2.918     0.000    -0.000
   613   6 C        2.747     2.778    -0.000
   614   7 N        2.522    11.407    -0.001
   615   6 C        3.116     0.065    -0.000
   616   6 C        2.785     0.004    -0.000
   617   8 O        2.219     7.550    -0.001
   618   7 N        2.734     0.000     0.000
   619   6 C        2.937     0.000    -0.000
   620   7 N        2.358     0.126    -0.000
   621   7 N        2.706     1.489    -0.000
   622   6 C        3.296     0.000     0.000
   623   1 H        1.908     9.415    -0.016
   624   1 H        1.888    14.278    -0.024
   625   1 H        1.951    15.306    -0.026
   626   1 H        2.083     3.296    -0.006
   627   1 H        2.125     0.000    -0.000
   628   1 H        1.824     5.798    -0.010
   629   1 H        2.021     7.235    -0.012
   630   1 H        2.039     1.509    -0.003
   631   1 H        2.355     0.000     0.000
   632   1 H        2.040     0.426    -0.001
   633   1 H        1.952     9.131    -0.015
   634  15 P        2.783     8.990    -0.002
   635   8 O        2.077    26.794    -0.003
   636   8 O        2.092    26.184    -0.003
   637   8 O        2.355     0.629    -0.000
   638   6 C        2.479     0.349    -0.000
   639   6 C        2.596     0.043    -0.000
   640   8 O        2.463     2.998    -0.000
   641   6 C        2.695     0.000     0.000
   642   8 O        2.364     3.984    -0.000
   643   6 C        2.606     0.160    -0.000
   644   8 O        2.107    13.791    -0.002
   645   6 C        2.765     0.046    -0.000
   646   7 N        2.926     0.000     0.000
   647   6 C        2.784     2.388    -0.000
   648   7 N        2.563     8.897    -0.001
   649   6 C        3.205     0.087    -0.000
   650   6 C        2.875     0.069    -0.000
   651   7 N        2.305     0.290    -0.000
   652   7 N        2.602     1.464    -0.000
   653   6 C        2.688     1.755    -0.000
   654   7 N        2.514     5.210    -0.000
   655   6 C        3.235     0.000     0.000
   656   1 H        1.915     7.034    -0.012
   657   1 H        1.908     9.595    -0.016
   658   1 H        1.959    14.720    -0.025
   659   1 H        2.119     1.551    -0.003
   660   1 H        2.039     0.977    -0.002
   661   1 H        1.773    12.549    -0.021
   662   1 H        2.032     5.977    -0.010
   663   1 H        2.058     1.376    -0.002
   664   1 H        2.007     0.568    -0.001
   665   1 H        1.931    13.917    -0.023
   666   1 H        2.006     7.746    -0.013
   667  15 P        2.774     9.146    -0.002
   668   8 O        2.070    27.426    -0.003
   669   8 O        2.093    22.664    -0.003
   670   8 O        2.336     0.230    -0.000
   671   6 C        2.453     0.479    -0.000
   672   6 C        2.539     0.186    -0.000
   673   8 O        2.396     3.669    -0.000
   674   6 C        2.502     0.305    -0.000
   675   8 O        2.048    16.898    -0.002
   676   6 C        2.524     0.042    -0.000
   677   8 O        2.070    13.346    -0.001
   678   6 C        2.673     0.106    -0.000
   679   7 N        2.760     0.149    -0.000
   680   6 C        2.665     3.981    -0.000
   681   7 N        2.434    14.411    -0.001
   682   6 C        2.883     3.438    -0.000
   683   6 C        2.579     4.521    -0.000
   684   8 O        2.096    27.964    -0.003
   685   7 N        2.438     2.046    -0.000
   686   6 C        2.644     4.369    -0.000
   687   7 N        2.199     3.784    -0.000
   688   7 N        2.482     6.599    -0.000
   689   6 C        3.002     3.346    -0.000
   690   1 H        1.908     4.858    -0.008
   691   1 H        1.889    12.665    -0.021
   692   1 H        1.930    14.478    -0.024
   693   1 H        1.966    11.156    -0.019
   694   1 H        1.751    14.354    -0.024
   695   1 H        1.965    12.558    -0.021
   696   1 H        1.737    18.606    -0.031
   697   1 H        1.972    14.205    -0.024
   698   1 H        1.999     1.872    -0.003
   699   1 H        1.970    12.665    -0.021
   700   1 H        1.877    14.223    -0.024
   701   1 H        1.861    20.233    -0.034

 total SASA / Å² :     3917.538

     #   Z          covCN         q      C6AA      α(0)
     1   8 O        1.655    -0.441    21.652     6.281
     2   6 C        3.794     0.152    18.156     6.068
     3   6 C        3.793     0.090    19.106     6.225
     4   8 O        1.696    -0.310    19.176     5.912
     5   6 C        3.701     0.161    18.143     6.091
     6   7 N        2.733    -0.049    22.188     6.996
     7   6 C        2.847     0.035    27.207     8.549
     8   6 C        2.947     0.020    27.568     8.612
     9   6 C        3.755    -0.165    23.771     6.952
    10   6 C        2.841     0.176    24.211     8.064
    11   7 N        2.648    -0.193    25.182     7.453
    12   7 N        1.843    -0.289    28.346     7.890
    13   6 C        2.715     0.324    21.498     7.590
    14   8 O        0.859    -0.484    23.426     6.489
    15   6 C        3.934     0.153    18.075     6.042
    16   6 C        3.822    -0.081    22.029     6.679
    17   6 C        3.821    -0.097    22.331     6.725
    18   6 C        3.868    -0.035    21.145     6.539
    19   6 C        3.806    -0.089    22.200     6.707
    20   8 O        1.657    -0.337    19.671     5.987
    21   1 H        0.804     0.386     0.511     1.123
    22   1 H        0.925     0.059     2.212     2.326
    23   1 H        0.925     0.112     1.675     2.024
    24   1 H        0.926     0.140     1.459     1.889
    25   1 H        0.925     0.102     1.766     2.078
    26   1 H        0.926     0.127     1.561     1.954
    27   1 H        0.926     0.145     1.426     1.868
    28   1 H        0.860     0.250     0.882     1.471
    29   1 H        0.860     0.281     0.773     1.377
    30   1 H        0.925     0.093     1.847     2.125
    31   1 H        0.925     0.079     1.987     2.204
    32   1 H        0.926     0.099     1.792     2.093
    33   1 H        0.926     0.091     1.872     2.140
    34   1 H        0.926     0.115     1.655     2.012
    35   1 H        0.926     0.064     2.152     2.294
    36   1 H        0.926     0.095     1.827     2.113
    37   6 C        3.754    -0.158    23.625     6.931
    38   6 C        2.839     0.025    27.437     8.584
    39   6 C        2.946     0.003    27.959     8.672
    40   6 C        2.757     0.270    22.443     7.758
    41   6 C        2.696     0.322    21.532     7.595
    42  15 P        3.572     0.549   138.080    21.108
    43   8 O        0.808    -0.582    25.713     6.797
    44   8 O        0.808    -0.569    25.386     6.754
    45   8 O        1.657    -0.278    18.637     5.828
    46   6 C        3.997     0.161    17.946     6.018
    47   6 C        3.797     0.104    18.882     6.187
    48   8 O        1.697    -0.315    19.266     5.926
    49   6 C        3.705     0.164    18.092     6.081
    50   7 N        2.732    -0.037    21.963     6.960
    51   8 O        0.858    -0.376    21.205     6.174
    52   7 N        2.692    -0.157    24.406     7.337
    53   8 O        0.858    -0.457    22.858     6.410
    54   6 C        3.963     0.154    18.047     6.036
    55   6 C        3.826    -0.083    22.069     6.685
    56   6 C        3.821    -0.099    22.366     6.730
    57   6 C        3.869    -0.028    21.036     6.522
    58   6 C        3.805    -0.085    22.122     6.696
    59   8 O        1.657    -0.351    19.917     6.025
    60   1 H        0.924     0.126     1.562     1.955
    61   1 H        0.925     0.089     1.886     2.148
    62   1 H        0.924     0.155     1.357     1.822
    63   1 H        0.926     0.121     1.608     1.983
    64   1 H        0.925     0.054     2.270     2.356
    65   1 H        0.925     0.117     1.635     2.000
    66   1 H        0.860     0.274     0.795     1.396
    67   1 H        0.925     0.109     1.702     2.040
    68   1 H        0.924     0.080     1.978     2.199
    69   1 H        0.926     0.115     1.651     2.009
    70   1 H        0.926     0.109     1.707     2.043
    71   1 H        0.925     0.128     1.548     1.946
    72   1 H        0.925     0.074     2.046     2.237
    73   1 H        0.926     0.091     1.872     2.140
    74  15 P        3.627     0.563   137.566    21.069
    75   8 O        0.808    -0.578    25.623     6.785
    76   8 O        0.808    -0.567    25.347     6.749
    77   8 O        1.657    -0.275    18.585     5.820
    78   6 C        4.024     0.162    17.928     6.015
    79   6 C        3.795     0.102    18.916     6.193
    80   8 O        1.696    -0.315    19.267     5.926
    81   6 C        3.702     0.163    18.123     6.087
    82   7 N        2.733    -0.034    21.892     6.949
    83   6 C        2.846     0.034    27.223     8.551
    84   6 C        2.946     0.030    27.340     8.576
    85   6 C        3.755    -0.177    24.006     6.986
    86   6 C        2.840     0.178    24.179     8.058
    87   7 N        2.648    -0.150    24.247     7.313
    88   7 N        1.843    -0.293    28.434     7.903
    89   6 C        2.715     0.319    21.572     7.603
    90   8 O        0.859    -0.481    23.368     6.481
    91   6 C        3.944     0.154    18.062     6.039
    92   6 C        3.825    -0.085    22.097     6.689
    93   6 C        3.820    -0.103    22.451     6.743
    94   6 C        3.869    -0.026    20.988     6.515
    95   6 C        3.806    -0.085    22.121     6.696
    96   8 O        1.657    -0.347    19.852     6.015
    97   1 H        0.925     0.060     2.197     2.318
    98   1 H        0.925     0.126     1.568     1.958
    99   1 H        0.926     0.116     1.644     2.005
   100   1 H        0.926     0.098     1.803     2.100
   101   1 H        0.926     0.145     1.428     1.869
   102   1 H        0.925     0.187     1.166     1.689
   103   1 H        0.860     0.293     0.735     1.343
   104   1 H        0.860     0.303     0.706     1.316
   105   1 H        0.925     0.115     1.658     2.014
   106   1 H        0.925     0.091     1.873     2.140
   107   1 H        0.926     0.122     1.599     1.977
   108   1 H        0.926     0.120     1.617     1.989
   109   1 H        0.925     0.136     1.493     1.910
   110   1 H        0.925     0.077     2.006     2.215
   111   1 H        0.926     0.092     1.856     2.130
   112   6 C        3.169     0.104    25.351     8.226
   113   6 C        2.820     0.227    23.234     7.898
   114   6 C        3.100     0.127    25.113     8.212
   115   6 C        3.208     0.040    26.505     8.383
   116   6 C        2.760     0.280    22.262     7.727
   117  15 P        3.616     0.577   137.070    21.031
   118   8 O        0.808    -0.566    25.327     6.746
   119   8 O        0.808    -0.559    25.156     6.723
   120   8 O        1.658    -0.261    18.340     5.781
   121   6 C        4.032     0.169    17.830     5.998
   122   6 C        3.796     0.100    18.943     6.197
   123   8 O        1.697    -0.307    19.111     5.902
   124   6 C        3.705     0.152    18.265     6.110
   125   7 N        2.821    -0.013    21.508     6.888
   126   7 N        1.876    -0.164    25.354     7.464
   127   8 O        0.858    -0.335    20.416     6.058
   128   7 N        2.704    -0.159    24.430     7.341
   129   7 N        2.649    -0.202    25.387     7.483
   130   7 N        1.834    -0.235    27.006     7.701
   131   6 C        3.959     0.153    18.070     6.040
   132   6 C        3.826    -0.097    22.327     6.724
   133   6 C        3.819    -0.106    22.503     6.751
   134   6 C        3.868    -0.021    20.913     6.503
   135   6 C        3.806    -0.088    22.180     6.704
   136   8 O        1.656    -0.352    19.946     6.029
   137   1 H        0.926     0.108     1.715     2.048
   138   1 H        0.925     0.069     2.092     2.262
   139   1 H        0.925     0.127     1.554     1.950
   140   1 H        0.860     0.278     0.784     1.387
   141   1 H        0.860     0.271     0.806     1.407
   142   1 H        0.860     0.288     0.751     1.358
   143   1 H        0.925     0.126     1.565     1.956
   144   1 H        0.925     0.096     1.820     2.109
   145   1 H        0.926     0.129     1.539     1.940
   146   1 H        0.926     0.129     1.545     1.944
   147   1 H        0.926     0.147     1.412     1.858
   148   1 H        0.925     0.088     1.900     2.156
   149   1 H        0.926     0.099     1.794     2.095
   150   6 C        3.160     0.099    25.506     8.256
   151   6 C        2.819     0.231    23.162     7.886
   152   6 C        3.095     0.123    25.195     8.227
   153   6 C        3.200     0.027    26.851     8.444
   154   6 C        2.760     0.273    22.381     7.747
   155  15 P        3.614     0.587   136.726    21.005
   156   8 O        0.808    -0.557    25.102     6.716
   157   8 O        0.808    -0.561    25.203     6.730
   158   8 O        1.658    -0.257    18.270     5.770
   159   6 C        4.014     0.165    17.881     6.007
   160   6 C        3.793     0.098    18.976     6.203
   161   8 O        1.696    -0.304    19.071     5.896
   162   6 C        3.704     0.151    18.297     6.116
   163   7 N        2.818    -0.013    21.506     6.888
   164   7 N        1.875    -0.172    25.538     7.491
   165   8 O        0.858    -0.337    20.457     6.064
   166   7 N        2.704    -0.150    24.243     7.313
   167   7 N        2.649    -0.202    25.399     7.485
   168   7 N        1.834    -0.222    26.696     7.657
   169   6 C        3.963     0.155    18.041     6.035
   170   6 C        3.825    -0.100    22.385     6.733
   171   6 C        3.820    -0.111    22.608     6.767
   172   6 C        3.869    -0.021    20.905     6.502
   173   6 C        3.806    -0.087    22.160     6.701
   174   8 O        1.658    -0.349    19.880     6.019
   175   1 H        0.926     0.115     1.652     2.010
   176   1 H        0.925     0.066     2.129     2.282
   177   1 H        0.925     0.132     1.523     1.930
   178   1 H        0.860     0.285     0.761     1.366
   179   1 H        0.860     0.265     0.828     1.425
   180   1 H        0.861     0.289     0.748     1.354
   181   1 H        0.925     0.133     1.514     1.924
   182   1 H        0.924     0.089     1.886     2.148
   183   1 H        0.926     0.135     1.495     1.912
   184   1 H        0.926     0.130     1.532     1.935
   185   1 H        0.925     0.151     1.384     1.839
   186   1 H        0.926     0.085     1.924     2.169
   187   1 H        0.925     0.101     1.779     2.086
   188  15 P        3.620     0.601   136.220    20.966
   189   8 O        0.808    -0.570    25.413     6.758
   190   8 O        0.808    -0.567    25.346     6.749
   191   8 O        1.657    -0.254    18.218     5.762
   192   6 C        4.022     0.165    17.880     6.007
   193   6 C        3.795     0.094    19.036     6.213
   194   8 O        1.695    -0.288    18.786     5.852
   195   6 C        3.703     0.150    18.304     6.117
   196   7 N        2.732    -0.014    21.532     6.892
   197   6 C        2.847     0.028    27.379     8.576
   198   6 C        2.947     0.038    27.154     8.547
   199   6 C        3.756    -0.190    24.284     7.026
   200   6 C        2.840     0.170    24.342     8.085
   201   7 N        2.647    -0.148    24.201     7.306
   202   7 N        1.841    -0.269    27.823     7.817
   203   6 C        2.714     0.313    21.685     7.623
   204   8 O        0.859    -0.452    22.756     6.396
   205   6 C        3.964     0.154    18.050     6.037
   206   6 C        3.826    -0.096    22.313     6.722
   207   6 C        3.823    -0.114    22.654     6.773
   208   6 C        3.868    -0.023    20.945     6.508
   209   6 C        3.806    -0.087    22.160     6.702
   210   8 O        1.657    -0.345    19.818     6.010
   211   1 H        0.925     0.071     2.072     2.251
   212   1 H        0.926     0.145     1.424     1.866
   213   1 H        0.926     0.141     1.453     1.885
   214   1 H        0.926     0.122     1.598     1.977
   215   1 H        0.926     0.172     1.252     1.749
   216   1 H        0.926     0.186     1.171     1.692
   217   1 H        0.860     0.300     0.712     1.322
   218   1 H        0.860     0.312     0.678     1.290
   219   1 H        0.925     0.137     1.486     1.906
   220   1 H        0.924     0.091     1.871     2.139
   221   1 H        0.926     0.144     1.430     1.870
   222   1 H        0.926     0.129     1.543     1.943
   223   1 H        0.925     0.154     1.365     1.827
   224   1 H        0.926     0.077     2.008     2.216
   225   1 H        0.926     0.093     1.848     2.126
   226   6 C        3.754    -0.182    24.122     7.003
   227   6 C        2.839     0.027    27.393     8.577
   228   6 C        2.946     0.034    27.247     8.561
   229   6 C        2.756     0.275    22.355     7.742
   230   6 C        2.693     0.312    21.700     7.624
   231  15 P        3.629     0.603   136.122    20.958
   232   8 O        0.808    -0.574    25.514     6.771
   233   8 O        0.808    -0.569    25.395     6.755
   234   8 O        1.658    -0.247    18.113     5.745
   235   6 C        4.027     0.164    17.893     6.009
   236   6 C        3.799     0.094    19.034     6.212
   237   8 O        1.696    -0.276    18.585     5.820
   238   6 C        3.702     0.144    18.392     6.132
   239   7 N        2.730     0.003    21.212     6.840
   240   8 O        0.858    -0.323    20.194     6.025
   241   7 N        2.690    -0.146    24.169     7.301
   242   8 O        0.857    -0.450    22.713     6.390
   243   6 C        3.959     0.155    18.038     6.035
   244   6 C        3.826    -0.092    22.236     6.710
   245   6 C        3.823    -0.112    22.626     6.769
   246   6 C        3.872    -0.024    20.958     6.510
   247   6 C        3.806    -0.086    22.129     6.697
   248   8 O        1.658    -0.339    19.707     5.993
   249   1 H        0.925     0.185     1.179     1.698
   250   1 H        0.924     0.204     1.079     1.624
   251   1 H        0.925     0.120     1.614     1.987
   252   1 H        0.926     0.156     1.349     1.817
   253   1 H        0.925     0.067     2.114     2.274
   254   1 H        0.925     0.145     1.427     1.868
   255   1 H        0.860     0.268     0.817     1.416
   256   1 H        0.925     0.120     1.615     1.987
   257   1 H        0.924     0.080     1.981     2.201
   258   1 H        0.926     0.138     1.475     1.899
   259   1 H        0.926     0.116     1.647     2.007
   260   1 H        0.925     0.162     1.312     1.791
   261   1 H        0.926     0.073     2.058     2.243
   262   1 H        0.926     0.101     1.774     2.083
   263   6 C        3.755    -0.179    24.055     6.993
   264   6 C        2.839     0.031    27.295     8.562
   265   6 C        2.946     0.027    27.390     8.584
   266   6 C        2.756     0.275    22.345     7.741
   267   6 C        2.694     0.321    21.547     7.597
   268  15 P        3.621     0.577   137.060    21.030
   269   8 O        0.808    -0.582    25.717     6.798
   270   8 O        0.808    -0.575    25.537     6.774
   271   8 O        1.658    -0.257    18.279     5.772
   272   6 C        4.032     0.162    17.932     6.015
   273   6 C        3.804     0.099    18.956     6.198
   274   8 O        1.696    -0.294    18.888     5.868
   275   6 C        3.703     0.159    18.179     6.096
   276   7 N        2.731    -0.017    21.585     6.900
   277   8 O        0.858    -0.321    20.168     6.021
   278   7 N        2.690    -0.148    24.201     7.306
   279   8 O        0.858    -0.478    23.298     6.471
   280   6 C        3.952     0.154    18.046     6.036
   281   6 C        3.829    -0.079    21.980     6.671
   282   6 C        3.825    -0.100    22.395     6.734
   283   6 C        3.868    -0.029    21.042     6.523
   284   6 C        3.805    -0.085    22.115     6.695
   285   8 O        1.657    -0.344    19.798     6.007
   286   1 H        0.925     0.205     1.076     1.622
   287   1 H        0.925     0.116     1.644     2.005
   288   1 H        0.925     0.181     1.198     1.711
   289   1 H        0.926     0.146     1.421     1.864
   290   1 H        0.925     0.050     2.314     2.379
   291   1 H        0.925     0.116     1.642     2.004
   292   1 H        0.860     0.263     0.835     1.431
   293   1 H        0.925     0.095     1.835     2.119
   294   1 H        0.924     0.069     2.101     2.267
   295   1 H        0.926     0.127     1.560     1.953
   296   1 H        0.926     0.103     1.754     2.071
   297   1 H        0.925     0.145     1.423     1.865
   298   1 H        0.926     0.063     2.164     2.300
   299   1 H        0.926     0.093     1.848     2.126
   300   8 O        0.808    -0.590    25.892     6.821
   301  15 P        3.586     0.532   138.714    21.157
   302   8 O        0.808    -0.577    25.589     6.781
   303   6 C        3.806    -0.085    22.123     6.696
   304   8 O        1.657    -0.282    18.702     5.838
   305   6 C        3.996     0.154    18.044     6.035
   306   6 C        3.868    -0.032    21.103     6.532
   307   6 C        3.794     0.106    18.841     6.181
   308   6 C        3.944     0.153    18.065     6.040
   309   6 C        3.819    -0.088    22.170     6.701
   310   8 O        1.656    -0.359    20.070     6.048
   311   6 C        3.824    -0.078    21.975     6.671
   312   6 C        3.706     0.170    18.005     6.066
   313   8 O        1.697    -0.329    19.510     5.964
   314   7 N        2.820    -0.049    22.175     6.994
   315   6 C        3.135     0.132    24.914     8.170
   316   7 N        1.825    -0.251    27.379     7.753
   317   6 C        2.901     0.135    25.051     8.207
   318   7 N        1.843    -0.239    27.107     7.716
   319   6 C        2.865     0.170    24.333     8.086
   320   7 N        2.646    -0.170    24.686     7.379
   321   6 C        3.201     0.025    26.885     8.449
   322   7 N        1.874    -0.191    25.957     7.552
   323   6 C        3.159     0.096    25.570     8.267
   324   1 H        0.926     0.063     2.167     2.302
   325   1 H        0.926     0.091     1.869     2.138
   326   1 H        0.925     0.127     1.556     1.951
   327   1 H        0.925     0.037     2.492     2.469
   328   1 H        0.926     0.099     1.797     2.096
   329   1 H        0.926     0.103     1.762     2.076
   330   1 H        0.925     0.099     1.797     2.096
   331   1 H        0.925     0.067     2.115     2.274
   332   1 H        0.925     0.090     1.879     2.144
   333   1 H        0.926     0.064     2.151     2.294
   334   1 H        0.860     0.301     0.711     1.321
   335   1 H        0.860     0.310     0.684     1.295
   336   1 H        0.926     0.090     1.881     2.145
   337  15 P        3.606     0.531   138.757    21.160
   338   8 O        0.808    -0.585    25.788     6.807
   339   8 O        0.808    -0.574    25.528     6.773
   340   8 O        1.658    -0.283    18.708     5.839
   341   6 C        4.019     0.162    17.931     6.015
   342   6 C        3.795     0.106    18.854     6.183
   343   8 O        1.696    -0.326    19.453     5.955
   344   6 C        3.700     0.172    17.990     6.065
   345   7 N        2.733    -0.052    22.251     7.006
   346   6 C        2.846     0.033    27.249     8.555
   347   6 C        2.947     0.020    27.561     8.611
   348   6 C        3.755    -0.173    23.927     6.975
   349   6 C        2.841     0.174    24.253     8.071
   350   7 N        2.649    -0.160    24.458     7.345
   351   7 N        1.843    -0.292    28.412     7.900
   352   6 C        2.715     0.325    21.471     7.585
   353   8 O        0.859    -0.496    23.696     6.527
   354   6 C        3.800     0.146    18.227     6.079
   355   6 C        3.818    -0.095    22.290     6.719
   356   6 C        3.823    -0.110    22.590     6.763
   357   6 C        3.870    -0.026    20.989     6.514
   358   6 C        3.805    -0.085    22.111     6.694
   359   8 O        1.656    -0.510    23.099     6.488
   360   1 H        0.925     0.060     2.205     2.322
   361   1 H        0.925     0.093     1.852     2.128
   362   1 H        0.926     0.114     1.659     2.014
   363   1 H        0.926     0.167     1.284     1.772
   364   1 H        0.925     0.094     1.837     2.120
   365   1 H        0.926     0.167     1.279     1.769
   366   1 H        0.860     0.277     0.787     1.390
   367   1 H        0.860     0.315     0.671     1.284
   368   1 H        0.924     0.102     1.770     2.081
   369   1 H        0.924     0.095     1.833     2.117
   370   1 H        0.926     0.099     1.793     2.094
   371   1 H        0.925     0.117     1.636     2.000
   372   1 H        0.926     0.112     1.677     2.025
   373   1 H        0.926     0.094     1.842     2.123
   374   1 H        0.926     0.076     2.020     2.222
   375   1 H        0.805     0.386     0.511     1.123
   376   8 O        1.655    -0.447    21.792     6.302
   377   6 C        3.675     0.060    19.790     6.374
   378   6 C        3.782     0.097    18.994     6.208
   379   8 O        1.699    -0.311    19.190     5.914
   380   6 C        3.888     0.118    18.604     6.132
   381   8 O        1.659    -0.309    19.167     5.910
   382   6 C        3.749     0.104    18.929     6.205
   383   8 O        1.656    -0.446    21.768     6.298
   384   6 C        3.716     0.149    18.292     6.110
   385   7 N        2.827    -0.023    21.694     6.918
   386   6 C        3.163     0.103    25.410     8.239
   387   7 N        1.877    -0.180    25.718     7.518
   388   6 C        3.205     0.030    26.741     8.422
   389   6 C        2.761     0.280    22.259     7.726
   390   8 O        0.858    -0.400    21.687     6.244
   391   7 N        2.705    -0.167    24.609     7.368
   392   6 C        2.820     0.241    22.973     7.853
   393   7 N        2.649    -0.212    25.633     7.519
   394   7 N        1.833    -0.263    27.694     7.798
   395   6 C        3.100     0.142    24.799     8.161
   396   1 H        0.925     0.097     1.810     2.104
   397   1 H        0.925     0.063     2.166     2.302
   398   1 H        0.924     0.057     2.233     2.337
   399   1 H        0.925     0.084     1.935     2.175
   400   1 H        0.924     0.084     1.942     2.179
   401   1 H        0.805     0.347     0.595     1.211
   402   1 H        0.925     0.137     1.482     1.904
   403   1 H        0.926     0.133     1.513     1.923
   404   1 H        0.860     0.280     0.776     1.380
   405   1 H        0.860     0.287     0.754     1.360
   406   1 H        0.860     0.294     0.732     1.340
   407   1 H        0.805     0.378     0.526     1.139
   408  15 P        3.556     0.530   138.775    21.161
   409   8 O        0.808    -0.558    25.133     6.720
   410   8 O        0.808    -0.537    24.658     6.656
   411   8 O        1.657    -0.343    19.771     6.003
   412   6 C        3.856     0.083    19.163     6.226
   413   6 C        3.801     0.098    18.969     6.201
   414   8 O        1.697    -0.316    19.271     5.927
   415   6 C        3.953     0.130    18.405     6.096
   416   8 O        1.658    -0.337    19.668     5.987
   417   6 C        3.768     0.113    18.769     6.174
   418   8 O        1.656    -0.485    22.565     6.413
   419   6 C        3.732     0.155    18.185     6.087
   420   7 N        2.735    -0.063    22.468     7.040
   421   6 C        2.696     0.325    21.471     7.584
   422   8 O        0.858    -0.487    23.509     6.501
   423   7 N        2.692    -0.150    24.236     7.312
   424   6 C        2.756     0.287    22.143     7.706
   425   8 O        0.858    -0.352    20.750     6.107
   426   6 C        2.899    -0.072    29.790     8.949
   427   6 C        2.839     0.051    26.856     8.493
   428   1 H        0.925     0.072     2.061     2.245
   429   1 H        0.925     0.057     2.232     2.337
   430   1 H        0.924     0.069     2.094     2.263
   431   1 H        0.924     0.053     2.281     2.362
   432   1 H        0.925     0.048     2.350     2.397
   433   1 H        0.805     0.366     0.552     1.167
   434   1 H        0.924     0.118     1.628     1.996
   435   1 H        0.861     0.279     0.780     1.383
   436   1 H        0.927     0.149     1.397     1.848
   437   1 H        0.928     0.093     1.848     2.126
   438  15 P        3.649     0.494   140.117    21.264
   439   8 O        0.808    -0.563    25.248     6.736
   440   8 O        0.808    -0.535    24.603     6.649
   441   8 O        1.657    -0.330    19.541     5.968
   442   6 C        3.895     0.094    18.974     6.192
   443   6 C        3.810     0.096    18.986     6.202
   444   8 O        1.697    -0.314    19.248     5.923
   445   6 C        3.973     0.126    18.462     6.105
   446   8 O        1.658    -0.356    20.022     6.041
   447   6 C        3.780     0.111    18.786     6.175
   448   8 O        1.655    -0.469    22.227     6.364
   449   6 C        3.736     0.160    18.092     6.070
   450   7 N        2.821    -0.067    22.528     7.049
   451   6 C        3.156     0.113    25.220     8.212
   452   7 N        1.875    -0.197    26.111     7.575
   453   6 C        3.201     0.034    26.678     8.416
   454   6 C        2.865     0.171    24.314     8.083
   455   7 N        2.646    -0.170    24.674     7.377
   456   7 N        1.841    -0.242    27.158     7.723
   457   6 C        2.893     0.133    25.096     8.214
   458   7 N        1.825    -0.261    27.636     7.790
   459   6 C        3.120     0.137    24.850     8.164
   460   1 H        0.925     0.065     2.147     2.291
   461   1 H        0.925     0.040     2.452     2.449
   462   1 H        0.924     0.068     2.108     2.270
   463   1 H        0.924     0.044     2.393     2.419
   464   1 H        0.925     0.048     2.344     2.394
   465   1 H        0.805     0.324     0.653     1.269
   466   1 H        0.924     0.119     1.621     1.991
   467   1 H        0.926     0.064     2.157     2.297
   468   1 H        0.860     0.329     0.632     1.245
   469   1 H        0.860     0.310     0.685     1.296
   470   1 H        0.926     0.072     2.061     2.245
   471  15 P        3.640     0.491   140.217    21.271
   472   8 O        0.808    -0.580    25.657     6.790
[...]
   425   8 O    1.974 --   424 C    1.660   423 N    0.139
   426   6 C    3.847 --   427 C    1.632   424 C    1.095   436 H    0.945
   427   6 C    3.913 --   426 C    1.632   420 N    1.188   437 H    0.947
   428   1 H    0.994 --   412 C    0.966
   429   1 H    0.996 --   412 C    0.967
   430   1 H    0.994 --   413 C    0.956
   431   1 H    0.997 --   415 C    0.953
   432   1 H    0.996 --   417 C    0.946
   433   1 H    0.866 --   418 O    0.846
   434   1 H    0.981 --   419 C    0.940
   435   1 H    0.921 --   423 N    0.837
   436   1 H    0.974 --   426 C    0.945
   437   1 H    0.987 --   427 C    0.947
   438  15 P    5.721 --   440 O    1.746   439 O    1.729   416 O    1.101
                           441 O    1.091
   439   8 O    1.918 --   438 P    1.729
   440   8 O    1.945 --   438 P    1.746
   441   8 O    2.256 --   438 P    1.091   442 C    0.956
   442   6 C    3.940 --   443 C    0.985   461 H    0.969   460 H    0.967
                           441 O    0.956
   443   6 C    3.953 --   442 C    0.985   445 C    0.967   444 O    0.967
                           462 H    0.956
   444   8 O    2.075 --   449 C    0.973   443 C    0.967
   445   6 C    3.931 --   447 C    0.969   443 C    0.967   463 H    0.954
                           446 O    0.946
   446   8 O    2.250 --   471 P    1.083   445 C    0.946
   447   6 C    3.961 --   448 O    0.993   449 C    0.971   445 C    0.969
                           464 H    0.946
   448   8 O    1.938 --   447 C    0.993   465 H    0.849
   449   6 C    3.931 --   444 O    0.973   447 C    0.971   450 N    0.955
                           466 H    0.943
   450   7 N    3.594 --   451 C    1.223   459 C    1.153   449 C    0.955
   451   6 C    3.906 --   452 N    1.570   450 N    1.223   467 H    0.951
   452   7 N    2.994 --   451 C    1.570   453 C    1.211
   453   6 C    3.860 --   459 C    1.279   452 N    1.211   454 C    1.153
   454   6 C    3.965 --   455 N    1.435   456 N    1.257   453 C    1.153
   455   7 N    3.378 --   454 C    1.435   469 H    0.887   468 H    0.831
   456   7 N    3.000 --   457 C    1.438   454 C    1.257
   457   6 C    3.934 --   456 N    1.438   458 N    1.409   470 H    0.954
   458   7 N    2.904 --   457 C    1.409   459 C    1.266
   459   6 C    3.893 --   453 C    1.279   458 N    1.266   450 N    1.153
   460   1 H    0.995 --   442 C    0.967
   461   1 H    0.998 --   442 C    0.969
   462   1 H    0.994 --   443 C    0.956
   463   1 H    0.998 --   445 C    0.954
   464   1 H    0.997 --   447 C    0.946
   465   1 H    0.894 --   448 O    0.849
   466   1 H    0.985 --   449 C    0.943
   467   1 H    0.995 --   451 C    0.951
   468   1 H    0.890 --   455 N    0.831
   469   1 H    0.904 --   455 N    0.887
   470   1 H    0.994 --   457 C    0.954
   471  15 P    5.728 --   473 O    1.764   472 O    1.744   474 O    1.084
                           446 O    1.083
   472   8 O    1.947 --   471 P    1.744
   473   8 O    1.975 --   471 P    1.764
   474   8 O    2.256 --   471 P    1.084   475 C    0.959
   475   6 C    3.944 --   476 C    0.984   494 H    0.967   474 O    0.959
                           493 H    0.945
   476   6 C    3.955 --   475 C    0.984   478 C    0.970   477 O    0.969
                           495 H    0.956
   477   8 O    2.074 --   482 C    0.974   476 C    0.969
   478   6 C    3.931 --   476 C    0.970   480 C    0.968   496 H    0.955
                           479 O    0.943
   479   8 O    2.257 --   504 P    1.092   478 C    0.943
   480   6 C    3.961 --   481 O    0.994   482 C    0.971   478 C    0.968
                           497 H    0.946
   481   8 O    1.938 --   480 C    0.994   498 H    0.850
   482   6 C    3.927 --   477 O    0.974   480 C    0.971   483 N    0.953
                           499 H    0.942
   483   7 N    3.583 --   484 C    1.219   492 C    1.147   482 C    0.953
   484   6 C    3.911 --   485 N    1.579   483 N    1.219   500 H    0.953
   485   7 N    3.003 --   484 C    1.579   486 C    1.207
   486   6 C    3.848 --   492 C    1.278   485 N    1.207   487 C    1.150
   487   6 C    3.966 --   488 N    1.441   489 N    1.256   486 C    1.150
   488   7 N    3.378 --   487 C    1.441   502 H    0.890   501 H    0.828
   489   7 N    3.006 --   490 C    1.440   487 C    1.256
   490   6 C    3.925 --   489 N    1.440   491 N    1.402   503 H    0.949
   491   7 N    2.905 --   490 C    1.402   492 C    1.269
   492   6 C    3.888 --   486 C    1.278   491 N    1.269   483 N    1.147
   493   1 H    0.997 --   475 C    0.945
   494   1 H    0.998 --   475 C    0.967
   495   1 H    0.994 --   476 C    0.956
   496   1 H    0.998 --   478 C    0.955
   497   1 H    0.997 --   480 C    0.946
   498   1 H    0.893 --   481 O    0.850
   499   1 H    0.985 --   482 C    0.942
   500   1 H    0.997 --   484 C    0.953
   501   1 H    0.883 --   488 N    0.828
   502   1 H    0.907 --   488 N    0.890
   503   1 H    0.989 --   490 C    0.949
   504  15 P    5.757 --   506 O    1.765   505 O    1.749   507 O    1.098
                           479 O    1.092
   505   8 O    1.959 --   504 P    1.749
   506   8 O    1.982 --   504 P    1.765
   507   8 O    2.262 --   504 P    1.098   508 C    0.953
   508   6 C    3.940 --   509 C    0.984   528 H    0.968   507 O    0.953
                           527 H    0.946
   509   6 C    3.961 --   508 C    0.984   511 C    0.972   510 O    0.972
                           529 H    0.954
   510   8 O    2.070 --   509 C    0.972   515 C    0.968
   511   6 C    3.926 --   509 C    0.972   513 C    0.963   530 H    0.953
                           512 O    0.943
   512   8 O    2.257 --   538 P    1.096   511 C    0.943
   513   6 C    3.957 --   514 O    1.004   511 C    0.963   515 C    0.962
                           531 H    0.947
   514   8 O    1.954 --   513 C    1.004   532 H    0.860
   515   6 C    3.915 --   510 O    0.968   513 C    0.962   516 N    0.954
                           533 H    0.935
   516   7 N    3.602 --   517 C    1.234   526 C    1.149   515 C    0.954
   517   6 C    3.860 --   518 N    1.539   516 N    1.234   534 H    0.953
   518   7 N    2.986 --   517 C    1.539   519 C    1.247
   519   6 C    3.792 --   526 C    1.248   518 N    1.247   520 C    1.082
   520   6 C    3.958 --   521 O    1.671   522 N    1.123   519 C    1.082
   521   8 O    1.998 --   520 C    1.671   522 N    0.147
   522   7 N    3.499 --   523 C    1.192   520 C    1.123   535 H    0.817
                           521 O    0.147
   523   6 C    3.952 --   524 N    1.406   525 N    1.281   522 N    1.192
   524   7 N    3.388 --   523 C    1.406   537 H    0.913   536 H    0.827
   525   7 N    2.851 --   526 C    1.311   523 C    1.281
   526   6 C    3.882 --   525 N    1.311   519 C    1.248   516 N    1.149
   527   1 H    0.997 --   508 C    0.946
   528   1 H    0.999 --   508 C    0.968
   529   1 H    0.995 --   509 C    0.954
   530   1 H    0.998 --   511 C    0.953
   531   1 H    0.991 --   513 C    0.947
   532   1 H    0.877 --   514 O    0.860
   533   1 H    0.980 --   515 C    0.935
   534   1 H    0.997 --   517 C    0.953
   535   1 H    0.897 --   522 N    0.817
   536   1 H    0.897 --   524 N    0.827
   537   1 H    0.937 --   524 N    0.913
   538  15 P    5.765 --   540 O    1.751   539 O    1.737   541 O    1.124
                           512 O    1.096
   539   8 O    1.940 --   538 P    1.737
   540   8 O    1.962 --   538 P    1.751
   541   8 O    2.281 --   538 P    1.124   542 C    0.947
   542   6 C    3.933 --   543 C    0.986   559 H    0.969   558 H    0.961
                           541 O    0.947
   543   6 C    3.962 --   542 C    0.986   544 O    0.976   545 C    0.973
                           560 H    0.954
   544   8 O    2.074 --   543 C    0.976   549 C    0.966
   545   6 C    3.919 --   543 C    0.973   547 C    0.966   561 H    0.954
                           546 O    0.934
   546   8 O    2.267 --   569 P    1.114   545 C    0.934
   547   6 C    3.945 --   548 O    1.006   545 C    0.966   549 C    0.948
                           562 H    0.946
   548   8 O    1.911 --   547 C    1.006   563 H    0.822
   549   6 C    3.902 --   544 O    0.966   550 N    0.964   547 C    0.948
                           564 H    0.924
   550   7 N    3.510 --   557 C    1.224   551 C    1.025   549 C    0.964
   551   6 C    3.932 --   552 O    1.565   553 N    1.252   550 N    1.025
   552   8 O    1.967 --   551 C    1.565   553 N    0.139
   553   7 N    3.014 --   554 C    1.319   551 C    1.252   552 O    0.139
   554   6 C    3.972 --   555 N    1.435   553 N    1.319   556 C    1.131
   555   7 N    3.426 --   554 C    1.435   566 H    0.902   565 H    0.833
   556   6 C    3.884 --   557 C    1.603   554 C    1.131   567 H    0.956
   557   6 C    3.940 --   556 C    1.603   550 N    1.224   568 H    0.956
   558   1 H    0.995 --   542 C    0.961
   559   1 H    0.999 --   542 C    0.969
   560   1 H    0.993 --   543 C    0.954
   561   1 H    0.998 --   545 C    0.954
   562   1 H    0.994 --   547 C    0.946
   563   1 H    0.837 --   548 O    0.822
   564   1 H    0.970 --   549 C    0.924
   565   1 H    0.890 --   555 N    0.833
   566   1 H    0.919 --   555 N    0.902
   567   1 H    0.987 --   556 C    0.956
   568   1 H    0.994 --   557 C    0.956
   569  15 P    5.777 --   571 O    1.742   570 O    1.741   572 O    1.119
                           546 O    1.114
   570   8 O    1.941 --   569 P    1.741
   571   8 O    1.948 --   569 P    1.742
   572   8 O    2.266 --   569 P    1.119   573 C    0.941
   573   6 C    3.925 --   574 C    0.985   590 H    0.969   589 H    0.959
                           572 O    0.941
   574   6 C    3.960 --   573 C    0.985   576 C    0.974   575 O    0.973
                           591 H    0.952
   575   8 O    2.072 --   574 C    0.973   580 C    0.964
   576   6 C    3.919 --   574 C    0.974   578 C    0.967   592 H    0.952
                           577 O    0.936
   577   8 O    2.271 --   600 P    1.116   576 C    0.936
   578   6 C    3.944 --   579 O    1.005   576 C    0.967   580 C    0.947
                           593 H    0.945
   579   8 O    1.908 --   578 C    1.005   594 H    0.822
   580   6 C    3.898 --   575 O    0.964   581 N    0.962   578 C    0.947
                           595 H    0.925
   581   7 N    3.503 --   588 C    1.225   582 C    1.033   580 C    0.962
                           583 O    0.101
   582   6 C    3.935 --   583 O    1.555   584 N    1.256   581 N    1.033
   583   8 O    1.955 --   582 C    1.555   584 N    0.138   581 N    0.101
   584   7 N    3.021 --   585 C    1.320   582 C    1.256   583 O    0.138
   585   6 C    3.969 --   586 N    1.430   584 N    1.320   587 C    1.132
   586   7 N    3.406 --   585 C    1.430   597 H    0.902   596 H    0.841
   587   6 C    3.859 --   588 C    1.605   585 C    1.132   598 H    0.956
   588   6 C    3.938 --   587 C    1.605   581 N    1.225   599 H    0.956
   589   1 H    0.993 --   573 C    0.959
   590   1 H    0.999 --   573 C    0.969
   591   1 H    0.992 --   574 C    0.952
   592   1 H    0.998 --   576 C    0.952
   593   1 H    0.994 --   578 C    0.945
   594   1 H    0.836 --   579 O    0.822
   595   1 H    0.970 --   580 C    0.925
   596   1 H    0.898 --   586 N    0.841
   597   1 H    0.919 --   586 N    0.902
   598   1 H    0.987 --   587 C    0.956
   599   1 H    0.993 --   588 C    0.956
   600  15 P    5.768 --   602 O    1.744   601 O    1.735   577 O    1.116
                           603 O    1.113
   601   8 O    1.935 --   600 P    1.735
   602   8 O    1.950 --   600 P    1.744
   603   8 O    2.268 --   600 P    1.113   604 C    0.944
   604   6 C    3.929 --   605 C    0.986   624 H    0.970   623 H    0.961
                           603 O    0.944
   605   6 C    3.960 --   604 C    0.986   606 O    0.974   607 C    0.971
                           625 H    0.953
   606   8 O    2.083 --   611 C    0.978   605 C    0.974
   607   6 C    3.922 --   605 C    0.971   609 C    0.964   626 H    0.957
                           608 O    0.935
   608   8 O    2.263 --   634 P    1.106   607 C    0.935
   609   6 C    3.963 --   610 O    1.001   611 C    0.969   607 C    0.964
                           627 H    0.944
   610   8 O    1.950 --   609 C    1.001   628 H    0.846
   611   6 C    3.912 --   606 O    0.978   609 C    0.969   612 N    0.950
                           629 H    0.926
   612   7 N    3.615 --   613 C    1.239   622 C    1.159   611 C    0.950
   613   6 C    3.854 --   614 N    1.533   612 N    1.239   630 H    0.952
   614   7 N    2.987 --   613 C    1.533   615 C    1.255
   615   6 C    3.803 --   614 N    1.255   622 C    1.250   616 C    1.090
   616   6 C    3.953 --   617 O    1.661   618 N    1.118   615 C    1.090
   617   8 O    1.981 --   616 C    1.661   618 N    0.142
   618   7 N    3.507 --   619 C    1.187   616 C    1.118   631 H    0.836
                           617 O    0.142
   619   6 C    3.951 --   620 N    1.400   621 N    1.292   618 N    1.187
   620   7 N    3.384 --   619 C    1.400   633 H    0.905   632 H    0.859
   621   7 N    2.847 --   622 C    1.306   619 C    1.292
   622   6 C    3.883 --   621 N    1.306   615 C    1.250   612 N    1.159
   623   1 H    0.993 --   604 C    0.961
   624   1 H    0.999 --   604 C    0.970
   625   1 H    0.992 --   605 C    0.953
   626   1 H    0.999 --   607 C    0.957
   627   1 H    0.997 --   609 C    0.944
   628   1 H    0.898 --   610 O    0.846
   629   1 H    0.971 --   611 C    0.926
   630   1 H    0.996 --   613 C    0.952
   631   1 H    0.916 --   618 N    0.836
   632   1 H    0.915 --   620 N    0.859
   633   1 H    0.925 --   620 N    0.905
   634  15 P    5.765 --   636 O    1.752   635 O    1.746   608 O    1.106
                           637 O    1.102
   635   8 O    1.951 --   634 P    1.746
   636   8 O    1.963 --   634 P    1.752
   637   8 O    2.261 --   634 P    1.102   638 C    0.946
   638   6 C    3.932 --   639 C    0.984   657 H    0.967   637 O    0.946
                           656 H    0.937
   639   6 C    3.959 --   638 C    0.984   640 O    0.976   641 C    0.973
                           658 H    0.951
   640   8 O    2.080 --   639 C    0.976   645 C    0.973
   641   6 C    3.932 --   639 C    0.973   643 C    0.969   659 H    0.954
                           642 O    0.943
   642   8 O    2.267 --   667 P    1.103   641 C    0.943
   643   6 C    3.967 --   644 O    1.000   645 C    0.969   641 C    0.969
                           660 H    0.954
   644   8 O    1.937 --   643 C    1.000   661 H    0.855
   645   6 C    3.915 --   640 O    0.973   643 C    0.969   646 N    0.953
                           662 H    0.930
   646   7 N    3.596 --   647 C    1.219   655 C    1.160   645 C    0.953
                           648 N    0.101
   647   6 C    3.942 --   648 N    1.590   646 N    1.219   663 H    0.952
   648   7 N    3.013 --   647 C    1.590   649 C    1.196   646 N    0.101
   649   6 C    3.885 --   655 C    1.289   648 N    1.196   650 C    1.165
   650   6 C    3.969 --   651 N    1.393   652 N    1.278   649 C    1.165
   651   7 N    3.437 --   650 C    1.393   665 H    0.911   664 H    0.858
   652   7 N    3.033 --   653 C    1.418   650 C    1.278
   653   6 C    3.928 --   654 N    1.428   652 N    1.418   666 H    0.945
   654   7 N    2.951 --   653 C    1.428   655 C    1.259
   655   6 C    3.913 --   649 C    1.289   654 N    1.259   646 N    1.160
   656   1 H    0.997 --   638 C    0.937
   657   1 H    0.999 --   638 C    0.967
   658   1 H    0.991 --   639 C    0.951
   659   1 H    1.000 --   641 C    0.954
   660   1 H    0.996 --   643 C    0.954
   661   1 H    0.881 --   644 O    0.855
   662   1 H    0.976 --   645 C    0.930
   663   1 H    0.997 --   647 C    0.952
   664   1 H    0.904 --   651 N    0.858
   665   1 H    0.928 --   651 N    0.911
   666   1 H    0.986 --   653 C    0.945
   667  15 P    5.786 --   668 O    1.756   669 O    1.741   670 O    1.126
                           642 O    1.103
   668   8 O    1.968 --   667 P    1.756
   669   8 O    1.954 --   667 P    1.741
   670   8 O    2.271 --   667 P    1.126   671 C    0.936
   671   6 C    3.921 --   672 C    0.986   691 H    0.964   690 H    0.956
                           670 O    0.936
   672   6 C    3.947 --   671 C    0.986   674 C    0.969   673 O    0.962
                           692 H    0.952
   673   8 O    2.068 --   678 C    0.979   672 C    0.962
   674   6 C    3.961 --   675 O    1.006   672 C    0.969   693 H    0.961
                           676 C    0.960
   675   8 O    1.926 --   674 C    1.006   694 H    0.837
   676   6 C    3.966 --   677 O    1.006   678 C    0.964   674 C    0.960
                           695 H    0.959
   677   8 O    1.924 --   676 C    1.006   696 H    0.836
   678   6 C    3.914 --   673 O    0.979   676 C    0.964   679 N    0.946
                           697 H    0.935
   679   7 N    3.612 --   680 C    1.245   689 C    1.160   678 C    0.946
   680   6 C    3.861 --   681 N    1.534   679 N    1.245   698 H    0.960
   681   7 N    2.984 --   680 C    1.534   682 C    1.253
   682   6 C    3.818 --   689 C    1.266   681 N    1.253   683 C    1.094
   683   6 C    3.946 --   684 O    1.654   685 N    1.118   682 C    1.094
   684   8 O    1.933 --   683 C    1.654   685 N    0.140
   685   7 N    3.520 --   686 C    1.178   683 C    1.118   699 H    0.890
                           684 O    0.140
   686   6 C    3.944 --   687 N    1.392   688 N    1.304   685 N    1.178
   687   7 N    3.373 --   686 C    1.392   700 H    0.900   701 H    0.893
   688   7 N    2.842 --   686 C    1.304   689 C    1.298
   689   6 C    3.896 --   688 N    1.298   682 C    1.266   679 N    1.160
   690   1 H    0.996 --   671 C    0.956
   691   1 H    0.996 --   671 C    0.964
   692   1 H    0.992 --   672 C    0.952
   693   1 H    0.998 --   674 C    0.961
   694   1 H    0.859 --   675 O    0.837
   695   1 H    0.997 --   676 C    0.959
   696   1 H    0.854 --   677 O    0.836
   697   1 H    0.979 --   678 C    0.935
   698   1 H    0.996 --   680 C    0.960
   699   1 H    0.922 --   685 N    0.890
   700   1 H    0.919 --   687 N    0.900
   701   1 H    0.910 --   687 N    0.893
 ---------------------------------------------------------------------------

Topologies differ in total number of bonds
Writing topology from bond orders to xtbtopo.mol

molecular dipole:
                 x           y           z       tot (Debye)
 q only:       35.807       0.010      72.282
   full:       29.701      -1.920      64.183     179.824
molecular quadrupole (traceless):
                xx          xy          yy          xz          yz          zz
 q only:    -1403.678     345.027    -900.654    -252.835    1679.276    2304.331
  q+dip:    -1291.484     364.934    -828.320    -410.152    1519.008    2119.803
   full:    -1312.045     364.113    -853.154    -412.549    1519.292    2165.199


           -------------------------------------------------
          | TOTAL ENERGY            -1399.395735141498 Eh   |
          | GRADIENT NORM               0.533106989105 Eh/α |
          | HOMO-LUMO GAP               0.007065814848 eV   |
           -------------------------------------------------

------------------------------------------------------------------------
 * finished run on 2023/04/11 at 13:22:30.495     
------------------------------------------------------------------------
 total:
 * wall-time:     0 d,  0 h,  0 min, 40.450 sec
 *  cpu-time:     0 d,  0 h,  6 min, 31.718 sec
 * ratio c/w:     9.684 speedup
 SCF:
 * wall-time:     0 d,  0 h,  0 min, 39.065 sec
 *  cpu-time:     0 d,  0 h,  6 min, 25.328 sec
 * ratio c/w:     9.864 speedup

