      -----------------------------------------------------------      
     |                   =====================                   |     
     |                           x T B                           |     
     |                   =====================                   |     
     |                         S. Grimme                         |     
     |          Mulliken Center for Theoretical Chemistry        |     
     |                    University of Bonn                     |     
      -----------------------------------------------------------      

   * xtb version 6.5.1 (579679a) compiled by 'ehlert@majestix' on 2022-07-11

   xtb is free software: you can redistribute it and/or modify it under
   the terms of the GNU Lesser General Public License as published by
   the Free Software Foundation, either version 3 of the License, or
   (at your option) any later version.
   
   xtb is distributed in the hope that it will be useful,
   but WITHOUT ANY WARRANTY; without even the implied warranty of
   MERCHANTABILITY or FITNESS FOR A PARTICULAR PURPOSE.  See the
   GNU Lesser General Public License for more details.
   
   Cite this work as:
   * C. Bannwarth, E. Caldeweyher, S. Ehlert, A. Hansen, P. Pracht,
     J. Seibert, S. Spicher, S. Grimme, WIREs Comput. Mol. Sci., 2020, 11,
     e01493. DOI: 10.1002/wcms.1493
   
   for GFN2-xTB:
   * C. Bannwarth, S. Ehlert and S. Grimme., J. Chem. Theory Comput., 2019,
     15, 1652-1671. DOI: 10.1021/acs.jctc.8b01176
   for GFN1-xTB:
   * S. Grimme, C. Bannwarth, P. Shushkov, J. Chem. Theory Comput., 2017,
     13, 1989-2009. DOI: 10.1021/acs.jctc.7b00118
   for GFN0-xTB:
   * P. Pracht, E. Caldeweyher, S. Ehlert, S. Grimme, ChemRxiv, 2019, preprint.
     DOI: 10.26434/chemrxiv.8326202.v1
   for GFN-FF:
   * S. Spicher and S. Grimme, Angew. Chem. Int. Ed., 2020, 59, 15665-15673.
     DOI: 10.1002/anie.202004239
   
   for ALPB and GBSA implicit solvation:
   * S. Ehlert, M. Stahn, S. Spicher, S. Grimme, J. Chem. Theory Comput.,
     2021, 17, 4250-4261. DOI: 10.1021/acs.jctc.1c00471
   
   for DFT-D4:
   * E. Caldeweyher, C. Bannwarth and S. Grimme, J. Chem. Phys., 2017,
     147, 034112. DOI: 10.1063/1.4993215
   * E. Caldeweyher, S. Ehlert, A. Hansen, H. Neugebauer, S. Spicher,
     C. Bannwarth and S. Grimme, J. Chem. Phys., 2019, 150, 154122.
     DOI: 10.1063/1.5090222
   * E. Caldeweyher, J.-M. Mewes, S. Ehlert and S. Grimme, Phys. Chem. Chem. Phys.
     2020, 22, 8499-8512. DOI: 10.1039/D0CP00502A
   
   for sTDA-xTB:
   * S. Grimme and C. Bannwarth, J. Chem. Phys., 2016, 145, 054103.
     DOI: 10.1063/1.4959605
   
   in the mass-spec context:
   * V. Asgeirsson, C. Bauer and S. Grimme, Chem. Sci., 2017, 8, 4879.
     DOI: 10.1039/c7sc00601b
   * J. Koopman and S. Grimme, ACS Omega 2019, 4, 12, 15120-15133.
     DOI: 10.1021/acsomega.9b02011
   
   for metadynamics refer to:
   * S. Grimme, J. Chem. Theory Comput., 2019, 155, 2847-2862
     DOI: 10.1021/acs.jctc.9b00143
   
   for SPH calculations refer to:
   * S. Spicher and S. Grimme, J. Chem. Theory Comput., 2021, 17, 1701-1714
     DOI: 10.1021/acs.jctc.0c01306
   
   with help from (in alphabetical order)
   P. Atkinson, C. Bannwarth, F. Bohle, G. Brandenburg, E. Caldeweyher
   M. Checinski, S. Dohm, S. Ehlert, S. Ehrlich, I. Gerasimov, C. Hölzer
   A. Katbashev, J. Koopman, C. Lavigne, S. Lehtola, F. März, M. Müller,
   F. Musil, H. Neugebauer, J. Pisarek, C. Plett, P. Pracht, F. Pultar,
   J. Seibert, P. Shushkov, S. Spicher, M. Stahn, M. Steiner, T. Strunk,
   J. Stückrath, T. Rose, and J. Unsleber
   
 * started run on 2023/04/11 at 13:06:55.937     

           -------------------------------------------------
          |                Calculation Setup                |
           -------------------------------------------------

          program call               : /N/u/schandy/BigRed3/bin/xtb-6.5.1/bin/xtb 2M1V_min.xyz --gbsa water
          hostname                   : nid00446
          coordinate file            : 2M1V_min.xyz
          omp threads                :                    10

   ID    Z sym.   atoms
    1    8 O      1, 4, 6, 8, 15, 34-36, 39, 41, 43, 50, 68-70, 73, 75, 77,
                  101-103, 106, 108, 110, 117, 135-137, 140, 142, 144, 148,
                  151, 165-167, 170, 172, 174, 198-200, 203, 205, 207, 211,
                  214, 228-230, 233, 235, 237, 244, 262-264, 267, 269, 271,
                  275, 278, 292-294, 297, 299, 301, 325-327, 330, 332, 334,
                  338, 341, 355-357, 360, 362, 364, 368, 371, 385-387, 390,
                  392, 394, 401, 419-421, 424, 426, 428, 435, 453-455, 458,
                  460, 462, 466, 484-486, 489, 491, 493, 517-519, 522, 524,
                  526, 530, 548-550, 553, 555, 557, 561, 564, 578-580, 583,
                  585, 587, 594, 612-614, 617, 619, 621, 645-647, 650, 652,
                  654, 661, 679-681, 684, 686, 688, 692, 710-712, 715, 717,
                  719, 743-745, 748, 750, 752, 756, 759, 773-775, 778, 780,
                  782, 806-808, 811, 813, 815, 819, 837-839, 842, 844, 846,
                  850, 853, 867-869, 872, 874, 876, 880, 898-900, 903, 905,
                  907, 911, 928, 931, 933, 938, 957-959, 962, 964, 989-991,
                  994, 996, 1004, 1022-1024, 1027, 1029, 1034, 1037,
                  1054-1056, 1059, 1061, 1069, 1087-1089, 1092, 1094, 1099,
                  1102, 1119-1121, 1124, 1126, 1131
    2    6 C      2, 3, 5, 7, 9, 11, 13, 14, 17, 20, 37, 38, 40, 42, 44, 46,
                  48, 49, 52, 55, 71, 72, 74, 76, 78, 80, 82, 83, 86, 88,
                  104, 105, 107, 109, 111, 113, 115, 116, 119, 122, 138, 139,
                  141, 143, 145, 147, 150, 152, 153, 168, 169, 171, 173, 175,
                  177, 179, 180, 183, 185, 201, 202, 204, 206, 208, 210, 213,
                  215, 216, 231, 232, 234, 236, 238, 240, 242, 243, 246, 249,
                  265, 266, 268, 270, 272, 274, 277, 279, 280, 295, 296, 298,
                  300, 302, 304, 306, 307, 310, 312, 328, 329, 331, 333, 335,
                  337, 340, 342, 343, 358, 359, 361, 363, 365, 367, 370, 372,
                  373, 388, 389, 391, 393, 395, 397, 399, 400, 403, 406, 422,
                  423, 425, 427, 429, 431, 433, 434, 437, 440, 456, 457, 459,
                  461, 463, 465, 468, 470, 471, 487, 488, 490, 492, 494, 496,
                  498, 499, 502, 504, 520, 521, 523, 525, 527, 529, 532, 534,
                  535, 551, 552, 554, 556, 558, 560, 563, 565, 566, 581, 582,
                  584, 586, 588, 590, 592, 593, 596, 599, 615, 616, 618, 620,
                  622, 624, 626, 627, 630, 632, 648, 649, 651, 653, 655, 657,
                  659, 660, 663, 666, 682, 683, 685, 687, 689, 691, 694, 696,
                  697, 713, 714, 716, 718, 720, 722, 724, 725, 728, 730, 746,
                  747, 749, 751, 753, 755, 758, 760, 761, 776, 777, 779, 781,
                  783, 785, 787, 788, 791, 793, 809, 810, 812, 814, 816, 818,
                  821, 823, 824, 840, 841, 843, 845, 847, 849, 852, 854, 855,
                  870, 871, 873, 875, 877, 879, 882, 884, 885, 901, 902, 904,
                  906, 908, 910, 913, 915, 916, 929, 930, 932, 934, 935, 937,
                  940, 942, 943, 960, 961, 963, 965, 966, 968, 970, 971, 974,
                  976, 992, 993, 995, 997, 998, 1000, 1002, 1003, 1006, 1009,
                  1025, 1026, 1028, 1030, 1031, 1033, 1036, 1038-1040, 1057,
                  1058, 1060, 1062, 1063, 1065, 1067, 1068, 1071, 1074, 1090,
                  1091, 1093, 1095, 1096, 1098, 1101, 1103-1105, 1122, 1123,
                  1125, 1127, 1128, 1130, 1133, 1135, 1136
    3    7 N      10, 12, 16, 18, 19, 45, 47, 51, 53, 54, 79, 81, 84, 85, 87,
                  112, 114, 118, 120, 121, 146, 149, 176, 178, 181, 182, 184,
                  209, 212, 239, 241, 245, 247, 248, 273, 276, 303, 305, 308,
                  309, 311, 336, 339, 366, 369, 396, 398, 402, 404, 405, 430,
                  432, 436, 438, 439, 464, 467, 469, 495, 497, 500, 501, 503,
                  528, 531, 533, 559, 562, 589, 591, 595, 597, 598, 623, 625,
                  628, 629, 631, 656, 658, 662, 664, 665, 690, 693, 695, 721,
                  723, 726, 727, 729, 754, 757, 784, 786, 789, 790, 792, 817,
                  820, 822, 848, 851, 878, 881, 883, 909, 912, 914, 936, 939,
                  941, 967, 969, 972, 973, 975, 999, 1001, 1005, 1007, 1008,
                  1032, 1035, 1064, 1066, 1070, 1072, 1073, 1097, 1100, 1129,
                  1132, 1134
    4    1 H      21-32, 56-66, 89-99, 123-133, 154-163, 186-196, 217-226,
                  250-260, 281-290, 313-323, 344-353, 374-383, 407-417,
                  441-451, 472-482, 505-515, 536-546, 567-576, 600-610,
                  633-643, 667-677, 698-708, 731-741, 762-771, 794-804,
                  825-835, 856-865, 886-896, 917-927, 944-955, 977-987,
                  1010-1020, 1041-1052, 1075-1085, 1106-1117, 1137-1147
    5   15 P      33, 67, 100, 134, 164, 197, 227, 261, 291, 324, 354, 384,
                  418, 452, 483, 516, 547, 577, 611, 644, 678, 709, 742, 772,
                  805, 836, 866, 897, 956, 988, 1021, 1053, 1086, 1118

molecular fragmentation (1/2 indicates fragments):
111111111111111111111111111111111111111111111111111111111111111111111111
111111111111111111111111111111111111111111111111111111111111111111111111
111111111111111111111111111111111111111111111111111111111111111111111111
111111111111111111111111111111111111111111111111111111111111111111111111
111111111111111111111111111111111111111111111111111111111111111111111111
111111111111111111111111111111111111111111111111111111111111111111111111
111111111111111111111111111111111111111111111111111111111111111111111111
111111111111111111111111111111111111111111111111111111111111111111111111
111111111111111111111111111111111111111111111111111111111111111111111111
111111111111111111111111111111111111111111111111111111111111111111111111
111111111111111111111111111111111111111111111111111111111111111111111111
111111111111111111111111111111111111111111111111111111111111111111111111
111111111111111111111111111111111111111111111111111111111111111222222222
222222222222222222222222222222222222222222222222222222222222222222222222
222222222222222222222222222222222222222222222222222222222222222222222222
2222222222222222222222222222222222222222222222222222222222222222222
# atoms in fragment 1/2:   927   220
 fragment masses (1/2) :     9255.32     2089.35
CMA distance (Bohr)    :  37.659
constraining FC (au)   :  0.0500

           -------------------------------------------------
          |                 G F N 2 - x T B                 |
           -------------------------------------------------

        Reference                      10.1021/acs.jctc.8b01176
      * Hamiltonian:
        H0-scaling (s, p, d)           1.850000    2.230000    2.230000
        zeta-weighting                 0.500000
      * Dispersion:
        s8                             2.700000
        a1                             0.520000
        a2                             5.000000
        s9                             5.000000
      * Repulsion:
        kExp                           1.500000    1.000000
        rExp                           1.000000
      * Coulomb:
        alpha                          2.000000
        third order                    shell-resolved
        anisotropic                    true
        a3                             3.000000
        a5                             4.000000
        cn-shift                       1.200000
        cn-exp                         4.000000
        max-rad                        5.000000

      * Solvation model:               GBSA
        Solvent                        water
        Parameter file                 internal GFN2-xTB/GBSA
        Dielectric constant                8.0200E+01
        Reference state                gsolv [1 M gas/solution]
        Free energy shift                  1.8574E-03 Eh       1.1656E+00 kcal/mol
        Temperature                        2.9815E+02 K
        Density                            1.0000E+00 kg/L
        Solvent mass                       1.8000E+01 g/mol
        Interaction kernel             Still
        Born radius scaling (c1)           1.5524E+00
        Born radii integrator          GBOBC
        Born offset                        2.4628E-02 a0       4.6540E-02 AA
        H-bond correction              true
        Ion screening                  false
        Surface tension                    1.0000E-05 Eh       1.5569E+01 dyn/cm
        Grid points                               230 per atom
q/qsh data taken from xtbrestart
CAMM data taken from xtbrestart

          ...................................................
          :                      SETUP                      :
          :.................................................:
          :  # basis functions                3616          :
          :  # atomic orbitals                3582          :
          :  # shells                         1936          :
          :  # electrons                      4066          :
          :  max. iterations                   250          :
          :  Hamiltonian                  GFN2-xTB          :
          :  restarted?                       true          :
          :  GBSA solvation                   true          :
          :  PC potential                    false          :
          :  electronic temp.          300.0000000     K    :
          :  accuracy                    1.0000000          :
          :  -> integral cutoff          0.2500000E+02      :
          :  -> integral neglect         0.1000000E-07      :
          :  -> SCF convergence          0.1000000E-05 Eh   :
          :  -> wf. convergence          0.1000000E-03 e    :
          :  Broyden damping             0.4000000          :
          ...................................................

 iter      E             dE          RMSdq      gap      omega  full diag
   1  -2409.5706361 -0.240957E+04  0.279E+00    0.00       0.0  T
   2  -2233.6528985  0.175918E+03  0.485E+00    0.01       1.0  T
   3  -2366.4691174 -0.132816E+03  0.357E+00    0.01       1.0  T
   4  -2419.4155458 -0.529464E+02  0.212E+00    0.02       1.0  T
   5  -2421.1829132 -0.176737E+01  0.185E+00    0.03       1.0  T
   6  -2422.7579639 -0.157505E+01  0.163E+00    0.02       1.0  T
   7  -2426.5133548 -0.375539E+01  0.141E+00    0.00       1.0  T
   8  -2427.7906341 -0.127728E+01  0.114E+00    0.00       1.0  T
   9  -2427.3370686  0.453566E+00  0.115E+00    0.00       1.0  T
  10  -2427.5391249 -0.202056E+00  0.110E+00    0.01       1.0  T
  11  -2427.9098018 -0.370677E+00  0.110E+00    0.01       1.0  T
  12  -2427.9145075 -0.470564E-02  0.101E+00    0.01       1.0  T
  13  -2427.6831381  0.231369E+00  0.960E-01    0.00       1.0  T
  14  -2428.4993931 -0.816255E+00  0.795E-01    0.00       1.0  T
  15  -2428.7349253 -0.235532E+00  0.786E-01    0.01       1.0  T
  16  -2429.0402479 -0.305323E+00  0.671E-01    0.00       1.0  T
  17  -2428.6963311  0.343917E+00  0.743E-01    0.00       1.0  T
  18  -2428.8249011 -0.128570E+00  0.708E-01    0.00       1.0  T
  19  -2429.1843756 -0.359475E+00  0.608E-01    0.00       1.0  T
  20  -2429.3052401 -0.120864E+00  0.545E-01    0.01       1.0  T
  21  -2429.4041763 -0.989362E-01  0.530E-01    0.00       1.0  T
  22  -2429.4398053 -0.356290E-01  0.509E-01    0.00       1.0  T
  23  -2429.0551189  0.384686E+00  0.661E-01    0.01       1.0  T
  24  -2429.5707026 -0.515584E+00  0.470E-01    0.00       1.0  T
  25  -2429.5577884  0.129142E-01  0.434E-01    0.00       1.0  T
  26  -2429.1204385  0.437350E+00  0.613E-01    0.00       1.0  T
  27  -2429.2027488 -0.823103E-01  0.689E-01    0.00       1.0  T
  28  -2429.4178014 -0.215053E+00  0.574E-01    0.01       1.0  T
  29  -2429.7136408 -0.295839E+00  0.384E-01    0.00       1.0  T
  30  -2429.5294153  0.184226E+00  0.505E-01    0.00       1.0  T
  31  -2429.5313462 -0.193097E-02  0.521E-01    0.00       1.0  T
  32  -2429.7588767 -0.227530E+00  0.356E-01    0.01       1.0  T
  33  -2429.6856150  0.732617E-01  0.414E-01    0.01       1.0  T
  34  -2429.4690288  0.216586E+00  0.540E-01    0.00       1.0  T
  35  -2429.7126905 -0.243662E+00  0.366E-01    0.00       1.0  T
  36  -2429.7539658 -0.412753E-01  0.343E-01    0.00       1.0  T
  37  -2429.8337613 -0.797955E-01  0.279E-01    0.00       1.0  T
  38  -2429.7503942  0.833671E-01  0.340E-01    0.00       1.0  T
  39  -2429.7421228  0.827140E-02  0.341E-01    0.00       1.0  T
  40  -2429.8066139 -0.644911E-01  0.289E-01    0.00       1.0  T
  41  -2429.7775169  0.290970E-01  0.308E-01    0.00       1.0  T
  42  -2429.8430930 -0.655761E-01  0.266E-01    0.00       1.0  T
  43  -2429.8104209  0.326721E-01  0.297E-01    0.00       1.0  T
  44  -2429.8554686 -0.450477E-01  0.256E-01    0.00       1.0  T
  45  -2429.8405020  0.149666E-01  0.257E-01    0.00       1.0  T
  46  -2429.8646270 -0.241251E-01  0.250E-01    0.00       1.0  T
  47  -2429.8654191 -0.792091E-03  0.232E-01    0.00       1.0  T
  48  -2429.9019247 -0.365055E-01  0.186E-01    0.00       1.0  T
  49  -2429.9042193 -0.229468E-02  0.190E-01    0.00       1.0  T
  50  -2429.9086315 -0.441219E-02  0.182E-01    0.00       1.0  T
  51  -2429.9320209 -0.233893E-01  0.153E-01    0.00       1.0  T
  52  -2429.9336475 -0.162660E-02  0.142E-01    0.00       1.0  T
  53  -2429.9350636 -0.141614E-02  0.137E-01    0.00       1.0  T
  54  -2429.9449530 -0.988935E-02  0.127E-01    0.00       1.0  T
  55  -2429.9371067  0.784630E-02  0.128E-01    0.00       1.0  T
  56  -2429.9503288 -0.132222E-01  0.104E-01    0.00       1.0  T
  57  -2429.9573199 -0.699107E-02  0.869E-02    0.00       1.0  T
  58  -2429.9548533  0.246660E-02  0.934E-02    0.00       1.0  T
  59  -2429.9639500 -0.909666E-02  0.678E-02    0.00       1.0  T
  60  -2429.9581038  0.584614E-02  0.916E-02    0.00       1.0  T
  61  -2429.9677785 -0.967465E-02  0.541E-02    0.00       1.0  T
  62  -2429.9667518  0.102670E-02  0.543E-02    0.00       1.0  T
  63  -2429.9694534 -0.270159E-02  0.480E-02    0.00       1.0  T
  64  -2429.9695309 -0.775425E-04  0.477E-02    0.00       1.0  T
  65  -2429.9709672 -0.143632E-02  0.376E-02    0.00       1.0  T
  66  -2429.9711080 -0.140738E-03  0.385E-02    0.00       1.0  T
  67  -2429.9718752 -0.767273E-03  0.324E-02    0.00       1.0  T
  68  -2429.9725886 -0.713411E-03  0.243E-02    0.00       1.0  T
  69  -2429.9725514  0.372150E-04  0.244E-02    0.00       1.0  T
  70  -2429.9729087 -0.357308E-03  0.206E-02    0.00       1.0  T
  71  -2429.9724409  0.467829E-03  0.265E-02    0.00       1.0  T
  72  -2429.9730315 -0.590596E-03  0.203E-02    0.00       1.0  T
  73  -2429.9731577 -0.126204E-03  0.165E-02    0.00       1.0  T
  74  -2429.9731561  0.160728E-05  0.176E-02    0.00       1.0  T
  75  -2429.9731386  0.174793E-04  0.170E-02    0.00       1.0  T
  76  -2429.9733260 -0.187352E-03  0.143E-02    0.00       1.0  T
  77  -2429.9734133 -0.872950E-04  0.126E-02    0.00       1.0  T
  78  -2429.9735157 -0.102445E-03  0.100E-02    0.00       1.0  T
  79  -2429.9734026  0.113088E-03  0.121E-02    0.00       1.0  T
  80  -2429.9735861 -0.183452E-03  0.762E-03    0.00       1.0  T
  81  -2429.9736231 -0.369942E-04  0.641E-03    0.00       1.0  T
  82  -2429.9736410 -0.179136E-04  0.564E-03    0.00       1.0  T
  83  -2429.9736598 -0.187817E-04  0.438E-03    0.00       1.0  T
  84  -2429.9736508  0.893827E-05  0.475E-03    0.00       1.0  T
  85  -2429.9736697 -0.188986E-04  0.382E-03    0.00       1.0  T
  86  -2429.9736732 -0.349424E-05  0.355E-03    0.00       1.0  T
  87  -2429.9736794 -0.616238E-05  0.315E-03    0.00       1.0  T
  88  -2429.9736832 -0.386777E-05  0.284E-03    0.00       1.0  T
  89  -2429.9736896 -0.637342E-05  0.218E-03    0.00       1.4  T
  90  -2429.9736932 -0.360469E-05  0.180E-03    0.00       1.6  T
  91  -2429.9736926  0.667096E-06  0.184E-03    0.00       1.6  T
  92  -2429.9736937 -0.112652E-05  0.173E-03    0.00       1.7  T
  93  -2429.9736936  0.487908E-07  0.166E-03    0.00       1.8  T
  94  -2429.9736959 -0.227736E-05  0.122E-03    0.00       2.4  T
  95  -2429.9736951  0.847122E-06  0.141E-03    0.00       2.1  T
  96  -2429.9736973 -0.221228E-05  0.936E-04    0.00       3.2  T
  97  -2429.9736977 -0.377772E-06  0.825E-04    0.00       3.6  T
  98  -2429.9736980 -0.375945E-06  0.723E-04    0.00       4.1  T

   *** convergence criteria satisfied after 98 iterations ***

         #    Occupation            Energy/Eh            Energy/eV
      -------------------------------------------------------------
         1        2.0000           -0.7946321             -21.6230
       ...           ...                  ...                  ...
      2027        1.5582           -0.4425271             -12.0418
      2028        1.5289           -0.4424479             -12.0396
      2029        1.5208           -0.4424267             -12.0390
      2030        1.5056           -0.4423874             -12.0380
      2031        1.4735           -0.4423072             -12.0358
      2032        1.4641           -0.4422844             -12.0352
      2033        1.4381           -0.4422224             -12.0335 (HOMO)
      2034        1.4215           -0.4421837             -12.0324 (LUMO)
      2035        1.3786           -0.4420867             -12.0298
      2036        1.3384           -0.4419989             -12.0274
      2037        1.2369           -0.4417885             -12.0217
      2038        1.2068           -0.4417282             -12.0200
       ...           ...                  ...                  ...
      3582                          1.3125141              35.7153
      -------------------------------------------------------------
                  HL-Gap            0.0000388 Eh            0.0011 eV
             Fermi-level           -0.4413296 Eh          -12.0092 eV

 SCC (total)                   0 d,  0 h,  3 min, 34.345 sec
 SCC setup                      ...        0 min,  0.208 sec (  0.097%)
 Dispersion                     ...        0 min,  0.731 sec (  0.341%)
 classical contributions        ...        0 min,  0.006 sec (  0.003%)
 integral evaluation            ...        0 min,  1.491 sec (  0.696%)
 iterations                     ...        3 min, 26.463 sec ( 96.323%)
 molecular gradient             ...        0 min,  5.077 sec (  2.369%)
 printout                       ...        0 min,  0.367 sec (  0.171%)

         :::::::::::::::::::::::::::::::::::::::::::::::::::::
         ::                     SUMMARY                     ::
         :::::::::::::::::::::::::::::::::::::::::::::::::::::
         :: total energy           -2407.618445925413 Eh    ::
         :: total w/o Gsasa/hb     -2407.374827736786 Eh    ::
         :: gradient norm              0.798130537890 Eh/a0 ::
         :: HOMO-LUMO gap              0.001054789784 eV    ::
         ::.................................................::
         :: SCC energy             -2429.973698034744 Eh    ::
         :: -> isotropic ES           13.622272459516 Eh    ::
         :: -> anisotropic ES         -1.961642739552 Eh    ::
         :: -> anisotropic XC          0.307052228161 Eh    ::
         :: -> dispersion             -2.175292590958 Eh    ::
         :: -> Gsolv                  -5.887882530187 Eh    ::
         ::    -> Gelec               -5.644264341561 Eh    ::
         ::    -> Gsasa                0.010937530773 Eh    ::
         ::    -> Ghb                 -0.256413162526 Eh    ::
         ::    -> Gshift               0.001857443127 Eh    ::
         :: repulsion energy          22.138473333579 Eh    ::
         :: add. restraining           0.000000000000 Eh    ::
         :: total charge               0.000000000017 e     ::
         :::::::::::::::::::::::::::::::::::::::::::::::::::::

           -------------------------------------------------
          |                Property Printout                |
           -------------------------------------------------

    * Orbital Energies and Occupations

         #    Occupation            Energy/Eh            Energy/eV
      -------------------------------------------------------------
         1        2.0000           -0.7946321             -21.6230
       ...           ...                  ...                  ...
      2021        1.6491           -0.4427998             -12.0492
      2022        1.6489           -0.4427992             -12.0492
      2023        1.6360           -0.4427573             -12.0480
      2024        1.6204           -0.4427082             -12.0467
      2025        1.6012           -0.4426502             -12.0451
      2026        1.5632           -0.4425410             -12.0422
      2027        1.5582           -0.4425271             -12.0418
      2028        1.5289           -0.4424479             -12.0396
      2029        1.5208           -0.4424267             -12.0390
      2030        1.5056           -0.4423874             -12.0380
      2031        1.4735           -0.4423072             -12.0358
      2032        1.4641           -0.4422844             -12.0352
      2033        1.4381           -0.4422224             -12.0335 (HOMO)
      2034        1.4215           -0.4421837             -12.0324 (LUMO)
      2035        1.3786           -0.4420867             -12.0298
      2036        1.3384           -0.4419989             -12.0274
      2037        1.2369           -0.4417885             -12.0217
      2038        1.2068           -0.4417282             -12.0200
      2039        1.0854           -0.4414922             -12.0136
      2040        1.0400           -0.4414056             -12.0113
      2041        0.8516           -0.4410455             -12.0015
      2042        0.7887           -0.4409219             -11.9981
      2043        0.7685           -0.4408815             -11.9970
      2044        0.7142           -0.4407710             -11.9940
       ...           ...                  ...                  ...
      3582                          1.3125141              35.7153
      -------------------------------------------------------------
                  HL-Gap            0.0000388 Eh            0.0011 eV
             Fermi-level           -0.4413296 Eh          -12.0092 eV

 * generalized Born model for continuum solvation

     #   Z     Born rad/Å   SASA/Å²    H-bond
     1   8 O        2.223    16.085    -0.002
     2   6 C        2.715     0.905    -0.000
     3   6 C        3.168     0.134    -0.000
     4   8 O        2.866     6.069    -0.001
     5   6 C        3.336     0.123    -0.000
     6   8 O        2.637     5.554    -0.001
     7   6 C        3.720     0.004    -0.000
     8   8 O        2.726     3.376    -0.000
     9   6 C        3.509     0.599    -0.000
    10   7 N        3.616     1.060    -0.000
    11   6 C        3.002    10.338    -0.000
    12   7 N        2.677    18.443    -0.006
    13   6 C        3.694     5.980    -0.000
    14   6 C        3.356     5.498    -0.000
    15   8 O        2.530    12.295    -0.002
    16   7 N        3.585     2.053    -0.001
    17   6 C        4.202     4.174    -0.000
    18   7 N        2.975     3.901    -0.001
    19   7 N        3.497     4.391    -0.001
    20   6 C        4.145     3.750    -0.000
    21   1 H        2.067    17.924    -0.024
    22   1 H        2.108    13.906    -0.019
    23   1 H        2.187    14.911    -0.020
    24   1 H        2.288     8.442    -0.011
    25   1 H        2.658     4.142    -0.006
    26   1 H        2.464     5.360    -0.007
    27   1 H        2.360    13.219    -0.018
    28   1 H        2.155    15.728    -0.021
    29   1 H        3.619     0.395    -0.001
    30   1 H        2.845     2.723    -0.004
    31   1 H        2.457    12.793    -0.017
    32   1 H        1.902    23.116    -0.031
    33  15 P        3.246     7.514    -0.001
    34   8 O        2.190    24.533    -0.003
    35   8 O        2.247    21.542    -0.003
    36   8 O        2.872     0.096    -0.000
    37   6 C        2.912     0.616    -0.000
    38   6 C        3.389     0.243    -0.000
    39   8 O        3.012     7.655    -0.001
    40   6 C        3.633     0.000     0.000
    41   8 O        2.675     5.462    -0.001
    42   6 C        3.612     0.375    -0.000
    43   8 O        2.405    11.892    -0.002
    44   6 C        3.642     0.593    -0.000
    45   7 N        4.249     0.212    -0.000
    46   6 C        3.900     0.683    -0.000
    47   7 N        3.607     4.362    -0.001
    48   6 C        5.414     0.080    -0.000
    49   6 C        4.480     0.041    -0.000
    50   8 O        3.119     3.024    -0.000
    51   7 N        3.960     0.000    -0.000
    52   6 C        4.137     1.426    -0.000
    53   7 N        2.746     2.890    -0.001
    54   7 N        3.351     5.748    -0.002
    55   6 C        4.947     0.063    -0.000
    56   1 H        2.173    12.567    -0.017
    57   1 H        2.157    12.558    -0.017
    58   1 H        2.241    11.987    -0.016
    59   1 H        2.642     1.169    -0.002
    60   1 H        2.647     0.405    -0.001
    61   1 H        2.092    13.074    -0.017
    62   1 H        2.313    15.266    -0.020
    63   1 H        3.167     0.620    -0.001
    64   1 H        3.414     0.000    -0.000
    65   1 H        2.467     5.134    -0.007
    66   1 H        2.253    16.997    -0.023
    67  15 P        3.234    10.330    -0.001
    68   8 O        2.183    25.486    -0.003
    69   8 O        2.242    20.098    -0.003
    70   8 O        2.763     1.457    -0.000
    71   6 C        2.920     0.557    -0.000
    72   6 C        3.400     0.197    -0.000
    73   8 O        3.231     3.694    -0.001
    74   6 C        3.579     0.002    -0.000
    75   8 O        2.674     5.480    -0.001
    76   6 C        3.767     0.000     0.000
    77   8 O        2.483     7.571    -0.001
    78   6 C        3.915     0.108    -0.000
    79   7 N        4.502     0.002    -0.000
    80   6 C        3.657     2.651    -0.000
    81   7 N        3.150    10.019    -0.003
    82   6 C        5.024     0.657    -0.000
    83   6 C        4.352     0.213    -0.000
    84   7 N        2.797     1.912    -0.001
    85   7 N        3.772     0.168    -0.000
    86   6 C        3.819     0.192    -0.000
    87   7 N        3.455     2.998    -0.001
    88   6 C        5.202     0.001    -0.000
    89   1 H        2.233     8.037    -0.011
    90   1 H        2.147    13.745    -0.018
    91   1 H        2.233    14.366    -0.019
    92   1 H        2.515     2.972    -0.004
    93   1 H        2.835     0.000     0.000
    94   1 H        2.058    15.501    -0.021
    95   1 H        2.561     3.722    -0.005
    96   1 H        2.640     0.346    -0.000
    97   1 H        2.870     0.734    -0.001
    98   1 H        2.306    17.249    -0.023
    99   1 H        2.587     4.857    -0.006
   100  15 P        3.230    10.501    -0.001
   101   8 O        2.181    26.033    -0.004
   102   8 O        2.234    23.217    -0.003
   103   8 O        2.758     1.747    -0.000
   104   6 C        2.965     0.451    -0.000
   105   6 C        3.496     0.032    -0.000
   106   8 O        3.387     1.490    -0.000
   107   6 C        3.628     0.000    -0.000
   108   8 O        2.694     5.094    -0.001
   109   6 C        3.786     0.136    -0.000
   110   8 O        2.481     9.493    -0.001
   111   6 C        4.006     0.052    -0.000
   112   7 N        4.707     0.000    -0.000
   113   6 C        3.767     2.406    -0.000
   114   7 N        3.170    11.365    -0.003
   115   6 C        4.892     0.135    -0.000
   116   6 C        4.041     0.084    -0.000
   117   8 O        2.769     8.440    -0.001
   118   7 N        4.256     0.000    -0.000
   119   6 C        4.844     0.008    -0.000
   120   7 N        3.088     0.107    -0.000
   121   7 N        3.675     3.145    -0.001
   122   6 C        5.360     0.000     0.000
   123   1 H        2.295     6.713    -0.009
   124   1 H        2.180    13.055    -0.017
   125   1 H        2.311    10.983    -0.015
   126   1 H        2.508     1.961    -0.003
   127   1 H        2.817     0.020    -0.000
   128   1 H        2.133    12.713    -0.017
   129   1 H        2.533     8.687    -0.012
   130   1 H        2.621     1.943    -0.003
   131   1 H        3.751     0.004    -0.000
   132   1 H        2.766     2.019    -0.003
   133   1 H        2.494     9.997    -0.013
   134  15 P        3.249    10.141    -0.001
   135   8 O        2.189    25.440    -0.003
   136   8 O        2.242    20.870    -0.003
   137   8 O        2.826     0.911    -0.000
   138   6 C        2.956     0.498    -0.000
   139   6 C        3.496     0.221    -0.000
   140   8 O        3.396     3.110    -0.000
   141   6 C        3.646     0.000    -0.000
   142   8 O        2.683     5.473    -0.001
   143   6 C        3.743     0.180    -0.000
   144   8 O        2.455    11.639    -0.002
   145   6 C        4.150     0.023    -0.000
   146   7 N        4.513     0.000     0.000
   147   6 C        4.310     0.000    -0.000
   148   8 O        2.816     6.108    -0.001
   149   7 N        3.946     0.000    -0.000
   150   6 C        3.844     0.179    -0.000
   151   8 O        2.860     6.312    -0.001
   152   6 C        3.419     2.598    -0.000
   153   6 C        3.800     0.965    -0.000
   154   1 H        2.254     7.942    -0.011
   155   1 H        2.166    12.623    -0.017
   156   1 H        2.294    11.657    -0.016
   157   1 H        2.559     2.106    -0.003
   158   1 H        2.655     0.243    -0.000
   159   1 H        2.127    12.787    -0.017
   160   1 H        2.823     2.749    -0.004
   161   1 H        3.677     0.011    -0.000
   162   1 H        2.221    13.028    -0.017
   163   1 H        2.828     0.070    -0.000
   164  15 P        3.222    10.231    -0.001
   165   8 O        2.180    25.756    -0.004
   166   8 O        2.227    23.294    -0.003
   167   8 O        2.749     1.072    -0.000
   168   6 C        2.949     0.562    -0.000
   169   6 C        3.408     0.230    -0.000
   170   8 O        3.136     4.593    -0.001
   171   6 C        3.563     0.026    -0.000
   172   8 O        2.702     4.798    -0.001
   173   6 C        3.730     0.033    -0.000
   174   8 O        2.546     4.772    -0.001
   175   6 C        3.799     0.119    -0.000
   176   7 N        4.248     0.032    -0.000
   177   6 C        3.652     3.679    -0.000
   178   7 N        3.397     7.005    -0.002
   179   6 C        5.214     1.245    -0.000
   180   6 C        4.783     0.357    -0.000
   181   7 N        3.006     2.514    -0.001
   182   7 N        4.152     0.012    -0.000
   183   6 C        3.766     0.191    -0.000
   184   7 N        3.301     5.289    -0.002
   185   6 C        4.948     0.005    -0.000
   186   1 H        2.312     6.016    -0.008
   187   1 H        2.164    13.819    -0.018
   188   1 H        2.257    12.501    -0.017
   189   1 H        2.469     3.660    -0.005
   190   1 H        2.695     0.021    -0.000
   191   1 H        2.124    11.972    -0.016
   192   1 H        2.461    10.815    -0.014
   193   1 H        2.584     1.842    -0.002
   194   1 H        2.685     5.486    -0.007
   195   1 H        2.472    12.018    -0.016
   196   1 H        2.616     4.621    -0.006
   197  15 P        3.241    10.623    -0.001
   198   8 O        2.182    25.886    -0.004
   199   8 O        2.252    20.037    -0.003
   200   8 O        2.781     1.052    -0.000
   201   6 C        2.929     0.478    -0.000
   202   6 C        3.378     0.228    -0.000
   203   8 O        3.116     4.836    -0.001
   204   6 C        3.552     0.004    -0.000
   205   8 O        2.663     5.666    -0.001
   206   6 C        3.646     0.000    -0.000
   207   8 O        2.467     7.851    -0.001
   208   6 C        3.712     0.651    -0.000
   209   7 N        3.861     0.155    -0.000
   210   6 C        3.601     0.168    -0.000
   211   8 O        2.551    11.435    -0.002
   212   7 N        3.399     0.012    -0.000
   213   6 C        3.522     0.636    -0.000
   214   8 O        2.673     7.838    -0.001
   215   6 C        3.303     3.165    -0.000
   216   6 C        3.569     1.162    -0.000
   217   1 H        2.237     8.571    -0.011
   218   1 H        2.161    13.644    -0.018
   219   1 H        2.224    14.407    -0.019
   220   1 H        2.523     2.446    -0.003
   221   1 H        2.614     0.031    -0.000
   222   1 H        2.042    15.235    -0.020
   223   1 H        2.392    11.615    -0.016
   224   1 H        3.177     0.002    -0.000
   225   1 H        2.208    13.729    -0.018
   226   1 H        2.724     0.364    -0.000
   227  15 P        3.225    10.190    -0.001
   228   8 O        2.183    25.520    -0.003
   229   8 O        2.227    23.753    -0.003
   230   8 O        2.784     0.402    -0.000
   231   6 C        2.957     0.376    -0.000
   232   6 C        3.379     0.224    -0.000
   233   8 O        3.060     4.981    -0.001
   234   6 C        3.567     0.004    -0.000
   235   8 O        2.676     5.609    -0.001
   236   6 C        3.743     0.000    -0.000
   237   8 O        2.511     6.849    -0.001
   238   6 C        3.717     0.605    -0.000
   239   7 N        4.120     0.426    -0.000
   240   6 C        3.454     1.374    -0.000
   241   7 N        3.029     7.791    -0.002
   242   6 C        4.489     0.015    -0.000
   243   6 C        3.918     0.006    -0.000
   244   8 O        2.718     9.069    -0.001
   245   7 N        3.969     0.000    -0.000
   246   6 C        4.133     0.154    -0.000
   247   7 N        2.833     0.788    -0.000
   248   7 N        3.321     4.766    -0.001
   249   6 C        4.684     0.218    -0.000
   250   1 H        2.311     5.726    -0.008
   251   1 H        2.195    12.392    -0.017
   252   1 H        2.226    14.584    -0.019
   253   1 H        2.516     1.246    -0.002
   254   1 H        2.824     0.006    -0.000
   255   1 H        2.074    13.643    -0.018
   256   1 H        2.413    12.335    -0.016
   257   1 H        2.507     1.948    -0.003
   258   1 H        4.182     0.000    -0.000
   259   1 H        3.038     0.705    -0.001
   260   1 H        2.269    18.150    -0.024
   261  15 P        3.247    10.339    -0.001
   262   8 O        2.189    25.241    -0.003
   263   8 O        2.234    21.284    -0.003
   264   8 O        2.902     0.323    -0.000
   265   6 C        3.003     0.169    -0.000
   266   6 C        3.457     0.191    -0.000
   267   8 O        3.145     5.000    -0.001
   268   6 C        3.578     0.020    -0.000
   269   8 O        2.665     5.039    -0.001
   270   6 C        3.579     0.212    -0.000
   271   8 O        2.447     9.185    -0.001
   272   6 C        3.781     0.119    -0.000
   273   7 N        3.924     0.132    -0.000
   274   6 C        3.723     1.030    -0.000
   275   8 O        2.870     1.368    -0.000
   276   7 N        3.251     1.735    -0.001
   277   6 C        3.326     4.290    -0.000
   278   8 O        2.406    20.433    -0.003
   279   6 C        3.285     4.676    -0.000
   280   6 C        3.597     2.091    -0.000
   281   1 H        2.276     7.726    -0.010
   282   1 H        2.242    11.135    -0.015
   283   1 H        2.259    12.295    -0.016
   284   1 H        2.537     2.739    -0.004
   285   1 H        2.464     1.220    -0.002
   286   1 H        2.103    13.420    -0.018
   287   1 H        2.438     9.162    -0.012
   288   1 H        2.776     1.540    -0.002
   289   1 H        2.231     9.239    -0.012
   290   1 H        2.968     0.031    -0.000
   291  15 P        3.227     9.544    -0.001
   292   8 O        2.199    23.977    -0.003
   293   8 O        2.238    22.902    -0.003
   294   8 O        2.690     2.393    -0.000
   295   6 C        2.925     0.177    -0.000
   296   6 C        3.425     0.094    -0.000
   297   8 O        3.113     2.343    -0.000
   298   6 C        3.576     0.007    -0.000
   299   8 O        2.932     2.698    -0.000
   300   6 C        3.617     0.008    -0.000
   301   8 O        2.671     4.149    -0.001
   302   6 C        3.662     0.640    -0.000
   303   7 N        3.843     1.064    -0.000
   304   6 C        3.315     5.495    -0.000
   305   7 N        3.087     5.016    -0.002
   306   6 C        4.746     1.351    -0.000
   307   6 C        4.866     0.240    -0.000
   308   7 N        4.081     0.000    -0.000
   309   7 N        3.377     2.266    -0.001
   310   6 C        3.234     4.486    -0.000
   311   7 N        2.992     7.887    -0.002
   312   6 C        4.283     3.880    -0.000
   313   1 H        2.185    11.220    -0.015
   314   1 H        2.220     9.132    -0.012
   315   1 H        2.303    10.527    -0.014
   316   1 H        2.443     4.428    -0.006
   317   1 H        2.388     9.413    -0.013
   318   1 H        2.236     3.571    -0.005
   319   1 H        2.427    12.651    -0.017
   320   1 H        2.366     6.989    -0.009
   321   1 H        4.122     0.047    -0.000
   322   1 H        3.652     0.611    -0.001
   323   1 H        2.338     9.561    -0.013
   324  15 P        3.289     8.555    -0.001
   325   8 O        2.202    25.678    -0.004
   326   8 O        2.295    14.702    -0.002
   327   8 O        2.571    10.571    -0.001
   328   6 C        2.985     1.372    -0.000
   329   6 C        3.627     0.071    -0.000
   330   8 O        3.526     0.236    -0.000
   331   6 C        3.630     0.000    -0.000
   332   8 O        2.905     3.391    -0.000
   333   6 C        3.823     0.066    -0.000
   334   8 O        3.129     0.058    -0.000
   335   6 C        4.043     0.009    -0.000
   336   7 N        3.992     0.062    -0.000
   337   6 C        3.968     0.719    -0.000
   338   8 O        3.086     0.209    -0.000
   339   7 N        3.517     1.013    -0.000
   340   6 C        3.385     5.041    -0.000
   341   8 O        2.609     8.539    -0.001
   342   6 C        3.130     8.173    -0.000
   343   6 C        3.390     2.471    -0.000
   344   1 H        2.204    14.286    -0.019
   345   1 H        2.347     5.532    -0.007
   346   1 H        2.442     5.195    -0.007
   347   1 H        2.432     4.961    -0.007
   348   1 H        2.432    12.317    -0.016
   349   1 H        2.754     1.229    -0.002
   350   1 H        2.627     6.131    -0.008
   351   1 H        3.249     0.334    -0.000
   352   1 H        2.134    20.523    -0.027
   353   1 H        2.471     4.147    -0.006
   354  15 P        3.332     7.366    -0.001
   355   8 O        2.263    17.002    -0.002
   356   8 O        2.245    21.555    -0.003
   357   8 O        2.800     1.527    -0.000
   358   6 C        3.268     0.247    -0.000
   359   6 C        3.753     0.073    -0.000
   360   8 O        3.596     2.985    -0.000
   361   6 C        3.584     0.003    -0.000
   362   8 O        2.703     5.776    -0.001
   363   6 C        3.495     0.147    -0.000
   364   8 O        2.401    13.013    -0.002
   365   6 C        3.835     0.101    -0.000
   366   7 N        3.897     0.274    -0.000
   367   6 C        3.543     3.105    -0.000
   368   8 O        2.666     1.220    -0.000
   369   7 N        3.222     2.070    -0.001
   370   6 C        3.588     3.458    -0.000
   371   8 O        2.794     0.554    -0.000
   372   6 C        3.495     2.960    -0.000
   373   6 C        3.673     1.469    -0.000
   374   1 H        2.607     4.212    -0.006
   375   1 H        2.446     7.311    -0.010
   376   1 H        2.531     3.807    -0.005
   377   1 H        2.569     0.369    -0.000
   378   1 H        2.384     8.691    -0.012
   379   1 H        2.044    13.850    -0.019
   380   1 H        2.501     6.041    -0.008
   381   1 H        2.770     4.944    -0.007
   382   1 H        2.440     4.129    -0.006
   383   1 H        2.642     4.780    -0.006
   384  15 P        3.243    10.530    -0.001
   385   8 O        2.188    24.541    -0.003
   386   8 O        2.276    12.744    -0.002
   387   8 O        2.739     1.578    -0.000
   388   6 C        2.919     0.708    -0.000
   389   6 C        3.345     0.260    -0.000
   390   8 O        2.898    10.008    -0.001
   391   6 C        3.586     0.000     0.000
   392   8 O        2.715     4.682    -0.001
   393   6 C        3.491     0.301    -0.000
   394   8 O        2.389    12.234    -0.002
   395   6 C        3.508     0.644    -0.000
   396   7 N        3.717     1.026    -0.000
   397   6 C        3.175     7.545    -0.000
   398   7 N        2.784    17.475    -0.005
   399   6 C        3.814     3.733    -0.000
   400   6 C        3.385     4.311    -0.000
   401   8 O        2.531    13.443    -0.002
   402   7 N        3.344     2.008    -0.001
   403   6 C        3.543     5.016    -0.000
   404   7 N        2.610     6.729    -0.002
   405   7 N        3.012     8.840    -0.003
   406   6 C        4.032     3.309    -0.000
   407   1 H        2.293     5.726    -0.008
   408   1 H        2.139    14.173    -0.019
   409   1 H        2.231    12.315    -0.016
   410   1 H        2.581     1.257    -0.002
   411   1 H        2.479     1.829    -0.002
   412   1 H        2.069    13.579    -0.018
   413   1 H        2.324    13.135    -0.018
   414   1 H        2.335     4.080    -0.005
   415   1 H        3.386     1.021    -0.001
   416   1 H        2.608     3.305    -0.004
   417   1 H        2.158    22.333    -0.030
   418  15 P        3.337     3.731    -0.000
   419   8 O        2.221    23.742    -0.003
   420   8 O        2.495     2.152    -0.000
   421   8 O        2.795     0.218    -0.000
   422   6 C        2.894     0.630    -0.000
   423   6 C        3.329     0.251    -0.000
   424   8 O        2.952     8.517    -0.001
   425   6 C        3.568     0.000    -0.000
   426   8 O        2.665     5.726    -0.001
   427   6 C        3.571     0.002    -0.000
   428   8 O        2.407     9.027    -0.001
   429   6 C        3.597     0.709    -0.000
   430   7 N        3.988     1.012    -0.000
   431   6 C        3.496     1.198    -0.000
   432   7 N        3.139     3.571    -0.001
   433   6 C        4.442     0.359    -0.000
   434   6 C        3.786     0.102    -0.000
   435   8 O        2.810     0.809    -0.000
   436   7 N        3.403     1.240    -0.000
   437   6 C        3.594     5.714    -0.000
   438   7 N        2.575     7.326    -0.002
   439   7 N        3.074     8.732    -0.003
   440   6 C        4.342     3.249    -0.000
   441   1 H        2.171    10.736    -0.014
   442   1 H        2.152    13.379    -0.018
   443   1 H        2.208    14.480    -0.019
   444   1 H        2.608     0.955    -0.001
   445   1 H        2.573     0.335    -0.000
   446   1 H        2.012    18.009    -0.024
   447   1 H        2.360    11.751    -0.016
   448   1 H        2.556     1.525    -0.002
   449   1 H        2.951     0.774    -0.001
   450   1 H        2.287    12.961    -0.017
   451   1 H        2.150    22.739    -0.030
   452  15 P        3.252    10.366    -0.001
   453   8 O        2.194    25.043    -0.003
   454   8 O        2.271    18.482    -0.003
   455   8 O        2.756     1.199    -0.000
   456   6 C        2.915     0.567    -0.000
   457   6 C        3.423     0.215    -0.000
   458   8 O        3.194     3.439    -0.000
   459   6 C        3.589     0.008    -0.000
   460   8 O        2.678     5.261    -0.001
   461   6 C        3.713     0.009    -0.000
   462   8 O        2.463     9.163    -0.001
   463   6 C        3.782     0.473    -0.000
   464   7 N        3.971     0.142    -0.000
   465   6 C        3.981     1.236    -0.000
   466   8 O        2.831     8.191    -0.001
   467   7 N        4.312     0.072    -0.000
   468   6 C        4.497     0.090    -0.000
   469   7 N        3.089     0.100    -0.000
   470   6 C        3.705     2.841    -0.000
   471   6 C        3.643     1.464    -0.000
   472   1 H        2.215     8.565    -0.011
   473   1 H        2.155    13.156    -0.018
   474   1 H        2.292    11.363    -0.015
   475   1 H        2.496     3.065    -0.004
   476   1 H        2.747    -0.001     0.000
   477   1 H        2.119    12.670    -0.017
   478   1 H        2.391    13.138    -0.018
   479   1 H        3.769     0.005    -0.000
   480   1 H        2.448    11.820    -0.016
   481   1 H        2.392     9.816    -0.013
   482   1 H        2.580     0.815    -0.001
   483  15 P        3.234    10.370    -0.001
   484   8 O        2.187    25.315    -0.003
   485   8 O        2.235    24.271    -0.003
   486   8 O        2.746     1.541    -0.000
   487   6 C        2.937     0.488    -0.000
   488   6 C        3.411     0.181    -0.000
   489   8 O        3.272     2.034    -0.000
   490   6 C        3.557     0.012    -0.000
   491   8 O        2.707     4.352    -0.001
   492   6 C        3.757     0.040    -0.000
   493   8 O        2.528    11.203    -0.002
   494   6 C        3.840     0.066    -0.000
   495   7 N        4.422     0.026    -0.000
   496   6 C        3.713     3.715    -0.000
   497   7 N        3.395     8.996    -0.003
   498   6 C        5.546     0.601    -0.000
   499   6 C        4.881     0.080    -0.000
   500   7 N        3.030     0.638    -0.000
   501   7 N        4.185     0.000     0.000
   502   6 C        3.945     0.107    -0.000
   503   7 N        3.408     5.012    -0.002
   504   6 C        5.214     0.007    -0.000
   505   1 H        2.257     7.717    -0.010
   506   1 H        2.165    13.426    -0.018
   507   1 H        2.248    14.656    -0.020
   508   1 H        2.446     4.741    -0.006
   509   1 H        2.809     0.039    -0.000
   510   1 H        2.325     1.468    -0.002
   511   1 H        2.475     8.147    -0.011
   512   1 H        2.544     3.702    -0.005
   513   1 H        2.670     2.166    -0.003
   514   1 H        2.672     2.785    -0.004
   515   1 H        2.688     4.062    -0.005
   516  15 P        3.267     9.778    -0.001
   517   8 O        2.195    24.796    -0.003
   518   8 O        2.261    20.390    -0.003
   519   8 O        2.834     1.381    -0.000
   520   6 C        2.944     0.550    -0.000
   521   6 C        3.460     0.170    -0.000
   522   8 O        3.242     3.893    -0.001
   523   6 C        3.616     0.015    -0.000
   524   8 O        2.678     5.728    -0.001
   525   6 C        3.710     0.165    -0.000
   526   8 O        2.473     9.422    -0.001
   527   6 C        3.781     0.640    -0.000
   528   7 N        3.990     0.453    -0.000
   529   6 C        3.824     0.726    -0.000
   530   8 O        2.725    10.800    -0.001
   531   7 N        4.070     0.008    -0.000
   532   6 C        4.432     0.005    -0.000
   533   7 N        3.163     0.017    -0.000
   534   6 C        3.666     1.445    -0.000
   535   6 C        3.718     0.790    -0.000
   536   1 H        2.245    10.826    -0.014
   537   1 H        2.151    13.858    -0.019
   538   1 H        2.291    11.417    -0.015
   539   1 H        2.534     2.579    -0.003
   540   1 H        2.654     0.057    -0.000
   541   1 H        2.127    12.678    -0.017
   542   1 H        2.383    13.429    -0.018
   543   1 H        3.855     0.000    -0.000
   544   1 H        2.781     1.659    -0.002
   545   1 H        2.349     6.225    -0.008
   546   1 H        2.820     0.179    -0.000
   547  15 P        3.246     8.508    -0.001
   548   8 O        2.192    24.999    -0.003
   549   8 O        2.235    24.214    -0.003
   550   8 O        2.823     0.246    -0.000
   551   6 C        2.974     0.389    -0.000
   552   6 C        3.419     0.238    -0.000
   553   8 O        3.160     5.212    -0.001
   554   6 C        3.629     0.000    -0.000
   555   8 O        2.689     5.514    -0.001
   556   6 C        3.729     0.000     0.000
   557   8 O        2.453     8.674    -0.001
   558   6 C        3.836     0.251    -0.000
   559   7 N        4.233     0.001    -0.000
   560   6 C        4.096     0.006    -0.000
   561   8 O        2.658    11.797    -0.002
   562   7 N        4.131     0.000    -0.000
   563   6 C        4.632     0.001    -0.000
   564   8 O        3.664     0.133    -0.000
   565   6 C        3.835     0.564    -0.000
   566   6 C        3.849     0.505    -0.000
   567   1 H        2.303     6.610    -0.009
   568   1 H        2.198    11.997    -0.016
   569   1 H        2.233    14.493    -0.019
   570   1 H        2.596     1.460    -0.002
   571   1 H        2.819    -0.001     0.000
   572   1 H        2.038    16.124    -0.022
   573   1 H        2.436     9.178    -0.012
   574   1 H        3.612     0.030    -0.000
   575   1 H        2.392     9.727    -0.013
   576   1 H        2.718     0.537    -0.001
   577  15 P        3.231    10.322    -0.001
   578   8 O        2.181    26.056    -0.004
   579   8 O        2.234    21.006    -0.003
   580   8 O        2.755     1.504    -0.000
   581   6 C        2.960     0.510    -0.000
   582   6 C        3.420     0.221    -0.000
   583   8 O        3.260     2.630    -0.000
   584   6 C        3.566     0.003    -0.000
   585   8 O        2.672     5.802    -0.001
   586   6 C        3.809     0.001    -0.000
   587   8 O        2.545     8.518    -0.001
   588   6 C        3.861     0.088    -0.000
   589   7 N        4.392     0.084    -0.000
   590   6 C        3.691     3.969    -0.000
   591   7 N        3.329     8.959    -0.003
   592   6 C        5.101     1.340    -0.000
   593   6 C        4.399     0.559    -0.000
   594   8 O        2.913    10.341    -0.001
   595   7 N        4.757     0.000     0.000
   596   6 C        5.115     0.008    -0.000
   597   7 N        3.206     0.207    -0.000
   598   7 N        3.655     2.203    -0.001
   599   6 C        5.155     0.152    -0.000
   600   1 H        2.327     5.646    -0.008
   601   1 H        2.164    14.292    -0.019
   602   1 H        2.240    14.731    -0.020
   603   1 H        2.488     3.820    -0.005
   604   1 H        2.833     0.274    -0.000
   605   1 H        2.168     9.602    -0.013
   606   1 H        2.479    10.823    -0.014
   607   1 H        2.599     2.001    -0.003
   608   1 H        4.968     0.000    -0.000
   609   1 H        3.169     0.306    -0.000
   610   1 H        2.436    14.058    -0.019
   611  15 P        3.267     9.479    -0.001
   612   8 O        2.207    23.768    -0.003
   613   8 O        2.250    22.204    -0.003
   614   8 O        2.931     0.096    -0.000
   615   6 C        2.961     0.703    -0.000
   616   6 C        3.504     0.167    -0.000
   617   8 O        3.500     0.061    -0.000
   618   6 C        3.680     0.000     0.000
   619   8 O        2.698     5.809    -0.001
   620   6 C        3.736     0.307    -0.000
   621   8 O        2.455    11.351    -0.002
   622   6 C        4.001     0.001    -0.000
   623   7 N        4.502     0.000     0.000
   624   6 C        3.600     0.468    -0.000
   625   7 N        3.050    13.057    -0.004
   626   6 C        4.882     0.575    -0.000
   627   6 C        4.612     0.354    -0.000
   628   7 N        2.852     3.220    -0.001
   629   7 N        3.980     1.187    -0.000
   630   6 C        3.998     0.620    -0.000
   631   7 N        3.607     3.135    -0.001
   632   6 C        5.113     0.001    -0.000
   633   1 H        2.192    12.232    -0.016
   634   1 H        2.199    12.310    -0.016
   635   1 H        2.259    12.202    -0.016
   636   1 H        2.598     1.304    -0.002
   637   1 H        2.642     1.054    -0.001
   638   1 H        2.106    13.403    -0.018
   639   1 H        2.568     4.029    -0.005
   640   1 H        2.624     5.403    -0.007
   641   1 H        2.547    10.231    -0.014
   642   1 H        2.310    17.500    -0.023
   643   1 H        2.925     2.380    -0.003
   644  15 P        3.272     7.848    -0.001
   645   8 O        2.200    23.953    -0.003
   646   8 O        2.247    21.851    -0.003
   647   8 O        2.918     0.115    -0.000
   648   6 C        3.009     0.522    -0.000
   649   6 C        3.496     0.219    -0.000
   650   8 O        3.184     6.084    -0.001
   651   6 C        3.693     0.000     0.000
   652   8 O        2.706     5.198    -0.001
   653   6 C        3.690     0.360    -0.000
   654   8 O        2.439    12.227    -0.002
   655   6 C        3.860     0.216    -0.000
   656   7 N        4.494     0.024    -0.000
   657   6 C        3.703     0.234    -0.000
   658   7 N        3.194     5.913    -0.002
   659   6 C        5.378     0.047    -0.000
   660   6 C        4.316     0.102    -0.000
   661   8 O        2.713     9.324    -0.001
   662   7 N        4.139     0.001    -0.000
   663   6 C        4.581     0.006    -0.000
   664   7 N        2.800     1.188    -0.000
   665   7 N        3.674     3.298    -0.001
   666   6 C        5.703     0.000    -0.000
   667   1 H        2.328     6.110    -0.008
   668   1 H        2.196    11.989    -0.016
   669   1 H        2.271    12.285    -0.016
   670   1 H        2.637     0.441    -0.001
   671   1 H        2.608     0.812    -0.001
   672   1 H        2.115    13.145    -0.018
   673   1 H        2.458    10.989    -0.015
   674   1 H        2.790     0.003    -0.000
   675   1 H        3.302     0.004    -0.000
   676   1 H        2.453     9.285    -0.012
   677   1 H        2.279    17.688    -0.024
   678  15 P        3.244     9.153    -0.001
   679   8 O        2.185    25.866    -0.004
   680   8 O        2.248    19.064    -0.003
   681   8 O        2.774     0.531    -0.000
   682   6 C        2.954     0.580    -0.000
   683   6 C        3.456     0.244    -0.000
   684   8 O        3.200     4.983    -0.001
   685   6 C        3.620     0.000     0.000
   686   8 O        2.680     5.136    -0.001
   687   6 C        3.658     0.116    -0.000
   688   8 O        2.438    10.613    -0.001
   689   6 C        3.810     0.108    -0.000
   690   7 N        4.041     0.000    -0.000
   691   6 C        3.887     0.028    -0.000
   692   8 O        2.776     8.540    -0.001
   693   7 N        4.011     0.002    -0.000
   694   6 C        4.322     0.230    -0.000
   695   7 N        2.902     0.248    -0.000
   696   6 C        3.734     3.140    -0.000
   697   6 C        3.732     1.229    -0.000
   698   1 H        2.306     5.926    -0.008
   699   1 H        2.161    13.951    -0.019
   700   1 H        2.293    11.368    -0.015
   701   1 H        2.562     1.912    -0.003
   702   1 H        2.633     0.038    -0.000
   703   1 H        2.118    12.720    -0.017
   704   1 H        2.412     9.571    -0.013
   705   1 H        3.149     0.103    -0.000
   706   1 H        2.342    13.638    -0.018
   707   1 H        2.389     8.100    -0.011
   708   1 H        2.657     0.347    -0.000
   709  15 P        3.223    10.456    -0.001
   710   8 O        2.180    25.650    -0.004
   711   8 O        2.237    21.381    -0.003
   712   8 O        2.721     1.660    -0.000
   713   6 C        2.908     0.592    -0.000
   714   6 C        3.370     0.205    -0.000
   715   8 O        3.164     2.899    -0.000
   716   6 C        3.543     0.003    -0.000
   717   8 O        2.691     5.207    -0.001
   718   6 C        3.736     0.034    -0.000
   719   8 O        2.493    11.737    -0.002
   720   6 C        3.741     0.092    -0.000
   721   7 N        4.183     0.003    -0.000
   722   6 C        3.510     2.721    -0.000
   723   7 N        3.128     8.765    -0.003
   724   6 C        4.798     0.305    -0.000
   725   6 C        4.236     0.021    -0.000
   726   7 N        2.768     1.231    -0.000
   727   7 N        3.733     0.002    -0.000
   728   6 C        3.544     0.435    -0.000
   729   7 N        3.207     5.510    -0.002
   730   6 C        4.756     0.000    -0.000
   731   1 H        2.232     8.041    -0.011
   732   1 H        2.144    14.033    -0.019
   733   1 H        2.232    14.628    -0.020
   734   1 H        2.455     3.205    -0.004
   735   1 H        2.869     0.007    -0.000
   736   1 H        2.290     3.681    -0.005
   737   1 H        2.410    10.536    -0.014
   738   1 H        2.502     2.431    -0.003
   739   1 H        2.568     4.642    -0.006
   740   1 H        2.334    13.578    -0.018
   741   1 H        2.469     6.478    -0.009
   742  15 P        3.258     9.890    -0.001
   743   8 O        2.191    24.969    -0.003
   744   8 O        2.246    19.624    -0.003
   745   8 O        2.885     0.427    -0.000
   746   6 C        2.979     0.470    -0.000
   747   6 C        3.427     0.141    -0.000
   748   8 O        3.188     4.605    -0.001
   749   6 C        3.600     0.000     0.000
   750   8 O        2.688     4.503    -0.001
   751   6 C        3.596     0.247    -0.000
   752   8 O        2.410    13.070    -0.002
   753   6 C        3.758     0.187    -0.000
   754   7 N        4.064     0.000     0.000
   755   6 C        3.835     0.000     0.000
   756   8 O        2.670     6.722    -0.001
   757   7 N        3.567     0.001    -0.000
   758   6 C        3.514     0.527    -0.000
   759   8 O        2.565    10.117    -0.001
   760   6 C        3.318     3.748    -0.000
   761   6 C        3.671     0.858    -0.000
   762   1 H        2.333     8.136    -0.011
   763   1 H        2.171    11.949    -0.016
   764   1 H        2.231    14.340    -0.019
   765   1 H        2.583     1.563    -0.002
   766   1 H        2.563     0.593    -0.001
   767   1 H        2.067    10.452    -0.014
   768   1 H        2.386    11.049    -0.015
   769   1 H        3.453     0.038    -0.000
   770   1 H        2.215    10.870    -0.015
   771   1 H        2.978     0.002    -0.000
   772  15 P        3.225     9.292    -0.001
   773   8 O        2.182    25.406    -0.003
   774   8 O        2.240    21.586    -0.003
   775   8 O        2.715     1.431    -0.000
   776   6 C        2.898     0.573    -0.000
   777   6 C        3.331     0.177    -0.000
   778   8 O        3.072     4.346    -0.001
   779   6 C        3.488     0.029    -0.000
   780   8 O        2.687     4.603    -0.001
   781   6 C        3.754     0.000    -0.000
   782   8 O        2.580     5.206    -0.001
   783   6 C        3.739     0.421    -0.000
   784   7 N        4.094     0.134    -0.000
   785   6 C        3.452     4.258    -0.000
   786   7 N        3.137     7.998    -0.002
   787   6 C        4.849     2.471    -0.000
   788   6 C        4.656     1.534    -0.000
   789   7 N        3.045     3.168    -0.001
   790   7 N        4.113     0.093    -0.000
   791   6 C        3.680     0.316    -0.000
   792   7 N        3.251     3.961    -0.001
   793   6 C        4.720     0.374    -0.000
   794   1 H        2.237     6.849    -0.009
   795   1 H        2.138    14.418    -0.019
   796   1 H        2.215    15.241    -0.020
   797   1 H        2.417     5.277    -0.007
   798   1 H        2.810     0.376    -0.001
   799   1 H        2.174     8.725    -0.012
   800   1 H        2.447    12.492    -0.017
   801   1 H        2.499     1.511    -0.002
   802   1 H        3.027     4.326    -0.006
   803   1 H        2.446    10.705    -0.014
   804   1 H        2.580     3.498    -0.005
   805  15 P        3.249    10.449    -0.001
   806   8 O        2.182    25.607    -0.004
   807   8 O        2.257    17.623    -0.002
   808   8 O        2.860     1.129    -0.000
   809   6 C        2.942     0.493    -0.000
   810   6 C        3.480     0.147    -0.000
   811   8 O        3.317     1.678    -0.000
   812   6 C        3.679     0.000    -0.000
   813   8 O        2.686     5.656    -0.001
   814   6 C        3.769     0.180    -0.000
   815   8 O        2.462    10.604    -0.001
   816   6 C        3.871     0.061    -0.000
   817   7 N        4.147     0.000    -0.000
   818   6 C        3.932     0.000    -0.000
   819   8 O        2.791     4.371    -0.001
   820   7 N        3.911     0.036    -0.000
   821   6 C        4.147     0.293    -0.000
   822   7 N        2.820     2.657    -0.001
   823   6 C        3.501     1.604    -0.000
   824   6 C        3.721     0.398    -0.000
   825   1 H        2.222    10.332    -0.014
   826   1 H        2.156    13.593    -0.018
   827   1 H        2.286    11.618    -0.016
   828   1 H        2.613     1.176    -0.002
   829   1 H        2.881     0.015    -0.000
   830   1 H        2.127    12.727    -0.017
   831   1 H        2.414    11.300    -0.015
   832   1 H        2.792     2.534    -0.003
   833   1 H        2.269    16.964    -0.023
   834   1 H        2.236    10.705    -0.014
   835   1 H        2.949     0.001    -0.000
   836  15 P        3.226    10.767    -0.001
   837   8 O        2.176    26.124    -0.004
   838   8 O        2.229    22.574    -0.003
   839   8 O        2.778     1.558    -0.000
   840   6 C        2.971     0.405    -0.000
   841   6 C        3.462     0.175    -0.000
   842   8 O        3.402     2.515    -0.000
   843   6 C        3.602     0.013    -0.000
   844   8 O        2.714     4.608    -0.001
   845   6 C        3.816     0.000    -0.000
   846   8 O        2.565     5.273    -0.001
   847   6 C        4.064     0.069    -0.000
   848   7 N        4.282     0.002    -0.000
   849   6 C        4.201     0.071    -0.000
   850   8 O        3.048     3.534    -0.000
   851   7 N        3.691     0.034    -0.000
   852   6 C        3.796     1.019    -0.000
   853   8 O        2.693    12.039    -0.002
   854   6 C        3.506     3.919    -0.000
   855   6 C        3.743     1.423    -0.000
   856   1 H        2.311     6.527    -0.009
   857   1 H        2.175    13.599    -0.018
   858   1 H        2.256    14.609    -0.020
   859   1 H        2.498     2.961    -0.004
   860   1 H        2.801     0.015    -0.000
   861   1 H        2.117    10.753    -0.014
   862   1 H        2.704     3.193    -0.004
   863   1 H        3.536     0.027    -0.000
   864   1 H        2.262    12.373    -0.017
   865   1 H        2.681     0.539    -0.001
   866  15 P        3.282     7.969    -0.001
   867   8 O        2.191    24.779    -0.003
   868   8 O        2.280    14.540    -0.002
   869   8 O        2.937     0.028    -0.000
   870   6 C        3.009     0.204    -0.000
   871   6 C        3.443     0.228    -0.000
   872   8 O        3.146     4.848    -0.001
   873   6 C        3.713     0.000     0.000
   874   8 O        2.710     4.856    -0.001
   875   6 C        3.804     0.116    -0.000
   876   8 O        2.440    13.013    -0.002
   877   6 C        3.850     0.633    -0.000
   878   7 N        4.292     0.507    -0.000
   879   6 C        3.951     0.285    -0.000
   880   8 O        2.759     4.976    -0.001
   881   7 N        3.939     0.009    -0.000
   882   6 C        4.575     0.121    -0.000
   883   7 N        3.061     0.703    -0.000
   884   6 C        3.823     0.081    -0.000
   885   6 C        3.852     0.123    -0.000
   886   1 H        2.264     8.524    -0.011
   887   1 H        2.236    10.764    -0.014
   888   1 H        2.225    14.980    -0.020
   889   1 H        2.715     0.020    -0.000
   890   1 H        3.701     0.011    -0.000
   891   1 H        2.154     8.944    -0.012
   892   1 H        2.426    11.509    -0.015
   893   1 H        3.195     0.750    -0.001
   894   1 H        2.496     8.680    -0.012
   895   1 H        2.366     4.248    -0.006
   896   1 H        2.975     0.000     0.000
   897  15 P        3.213    10.076    -0.001
   898   8 O        2.168    26.563    -0.004
   899   8 O        2.229    18.316    -0.003
   900   8 O        2.698     2.877    -0.000
   901   6 C        2.920     0.547    -0.000
   902   6 C        3.381     0.037    -0.000
   903   8 O        3.616     0.921    -0.000
   904   6 C        3.149     0.483    -0.000
   905   8 O        2.239    25.977    -0.004
   906   6 C        3.301     0.486    -0.000
   907   8 O        2.354    16.165    -0.002
   908   6 C        3.880     0.020    -0.000
   909   7 N        4.052     0.145    -0.000
   910   6 C        3.849     2.763    -0.000
   911   8 O        2.902     4.674    -0.001
   912   7 N        3.730     3.293    -0.001
   913   6 C        3.926     3.736    -0.000
   914   7 N        2.651     3.886    -0.001
   915   6 C        3.449     4.374    -0.000
   916   6 C        3.628     2.660    -0.000
   917   1 H        2.372     5.010    -0.007
   918   1 H        2.117    15.838    -0.021
   919   1 H        2.255    11.595    -0.015
   920   1 H        2.246    11.408    -0.015
   921   1 H        2.225    14.181    -0.019
   922   1 H        2.071    13.307    -0.018
   923   1 H        2.585     2.731    -0.004
   924   1 H        2.427     7.812    -0.010
   925   1 H        2.196    16.330    -0.022
   926   1 H        2.221     8.310    -0.011
   927   1 H        2.617     0.682    -0.001
   928   8 O        2.543     4.211    -0.001
   929   6 C        2.883     2.111    -0.000
   930   6 C        3.372     0.366    -0.000
   931   8 O        3.035     7.497    -0.001
   932   6 C        3.639     0.004    -0.000
   933   8 O        2.671     6.360    -0.001
   934   6 C        3.405     0.452    -0.000
   935   6 C        3.690     0.194    -0.000
   936   7 N        4.031     0.001    -0.000
   937   6 C        3.964     0.156    -0.000
   938   8 O        2.757     9.875    -0.001
   939   7 N        4.217     0.015    -0.000
   940   6 C        4.629     1.086    -0.000
   941   7 N        3.409     2.921    -0.001
   942   6 C        3.778     0.195    -0.000
   943   6 C        3.712     0.276    -0.000
   944   1 H        2.186    15.301    -0.020
   945   1 H        2.108    19.225    -0.026
   946   1 H        2.200    15.550    -0.021
   947   1 H        2.726     0.002    -0.000
   948   1 H        2.640     0.339    -0.000
   949   1 H        2.274    12.007    -0.016
   950   1 H        2.365    13.456    -0.018
   951   1 H        4.084     0.537    -0.001
   952   1 H        3.195     3.511    -0.005
   953   1 H        2.514     0.771    -0.001
   954   1 H        2.692     3.283    -0.004
   955   1 H        2.399     1.538    -0.002
   956  15 P        3.262    10.289    -0.001
   957   8 O        2.196    24.362    -0.003
   958   8 O        2.303    12.343    -0.002
   959   8 O        2.776     1.306    -0.000
   960   6 C        2.908     0.568    -0.000
   961   6 C        3.307     0.293    -0.000
   962   8 O        3.184     3.659    -0.001
   963   6 C        3.331     0.201    -0.000
   964   8 O        2.618     7.369    -0.001
   965   6 C        3.489     0.214    -0.000
   966   6 C        3.828     0.350    -0.000
   967   7 N        4.488     0.044    -0.000
   968   6 C        3.867     0.606    -0.000
   969   7 N        3.846     0.007    -0.000
   970   6 C        6.727     0.000    -0.000
   971   6 C        6.410     0.000     0.000
   972   7 N        3.874     0.000     0.000
   973   7 N        5.137     0.000     0.000
   974   6 C        4.493     0.312    -0.000
   975   7 N        3.808     2.829    -0.001
   976   6 C        6.097     0.016    -0.000
   977   1 H        2.188    10.879    -0.015
   978   1 H        2.157    12.899    -0.017
   979   1 H        2.203    15.818    -0.021
   980   1 H        2.266     9.288    -0.012
   981   1 H        2.457     9.538    -0.013
   982   1 H        2.812     0.006    -0.000
   983   1 H        2.503    10.054    -0.013
   984   1 H        2.658     0.675    -0.001
   985   1 H        3.602     0.000     0.000
   986   1 H        3.896     0.000    -0.000
   987   1 H        2.755     6.406    -0.009
   988  15 P        3.214     9.710    -0.001
   989   8 O        2.195    23.503    -0.003
   990   8 O        2.202    24.750    -0.003
   991   8 O        2.828     0.199    -0.000
   992   6 C        2.908     0.565    -0.000
   993   6 C        3.350     0.249    -0.000
   994   8 O        3.155     4.604    -0.001
   995   6 C        3.459     0.157    -0.000
   996   8 O        2.624     7.284    -0.001
   997   6 C        3.595     0.000    -0.000
   998   6 C        3.864     0.066    -0.000
   999   7 N        4.858     0.000     0.000
  1000   6 C        4.335     0.017    -0.000
  1001   7 N        4.067     0.660    -0.000
  1002   6 C        6.617     0.000    -0.000
  1003   6 C        5.099     0.000     0.000
  1004   8 O        3.372     0.038    -0.000
  1005   7 N        4.666     0.000    -0.000
  1006   6 C        4.886     0.000    -0.000
  1007   7 N        3.068     0.427    -0.000
  1008   7 N        3.667     2.381    -0.001
  1009   6 C        5.918     0.000     0.000
  1010   1 H        2.174    13.460    -0.018
  1011   1 H        2.168    12.208    -0.016
  1012   1 H        2.227    15.291    -0.020
  1013   1 H        2.376     4.786    -0.006
  1014   1 H        2.694     0.176    -0.000
  1015   1 H        2.583     3.222    -0.004
  1016   1 H        2.492    11.557    -0.015
  1017   1 H        2.812     0.569    -0.001
  1018   1 H        4.639     0.006    -0.000
  1019   1 H        3.103     0.314    -0.000
  1020   1 H        2.409    11.248    -0.015
  1021  15 P        3.213    10.199    -0.001
  1022   8 O        2.192    23.672    -0.003
  1023   8 O        2.195    26.335    -0.004
  1024   8 O        2.832     1.074    -0.000
  1025   6 C        2.918     0.561    -0.000
  1026   6 C        3.384     0.189    -0.000
  1027   8 O        3.381     0.971    -0.000
  1028   6 C        3.337     0.068    -0.000
  1029   8 O        2.606     7.442    -0.001
  1030   6 C        3.516     0.013    -0.000
  1031   6 C        3.983     0.013    -0.000
  1032   7 N        4.251     0.000    -0.000
  1033   6 C        4.341     0.000     0.000
  1034   8 O        2.876     4.300    -0.001
  1035   7 N        3.985     0.000    -0.000
  1036   6 C        3.936     0.910    -0.000
  1037   8 O        2.740     5.380    -0.001
  1038   6 C        4.076     1.847    -0.000
  1039   6 C        2.889     2.353    -0.000
  1040   6 C        3.787     2.171    -0.000
  1041   1 H        2.187    12.758    -0.017
  1042   1 H        2.168    11.949    -0.016
  1043   1 H        2.260    14.236    -0.019
  1044   1 H        2.249    11.166    -0.015
  1045   1 H        2.414     8.121    -0.011
  1046   1 H        2.919     0.012    -0.000
  1047   1 H        2.631     5.046    -0.007
  1048   1 H        3.591     0.001    -0.000
  1049   1 H        2.316     7.419    -0.010
  1050   1 H        2.157    20.543    -0.027
  1051   1 H        2.376     8.518    -0.011
  1052   1 H        2.551     4.964    -0.007
  1053  15 P        3.223     8.915    -0.001
  1054   8 O        2.200    23.366    -0.003
  1055   8 O        2.200    24.861    -0.003
  1056   8 O        2.879     0.311    -0.000
  1057   6 C        2.923     0.572    -0.000
  1058   6 C        3.349     0.179    -0.000
  1059   8 O        3.179     3.105    -0.000
  1060   6 C        3.396     0.118    -0.000
  1061   8 O        2.612     7.289    -0.001
  1062   6 C        3.520     0.002    -0.000
  1063   6 C        3.796     0.197    -0.000
  1064   7 N        4.468     0.003    -0.000
  1065   6 C        4.082     0.018    -0.000
  1066   7 N        3.747     1.324    -0.000
  1067   6 C        5.548     0.000     0.000
  1068   6 C        4.565     0.001    -0.000
  1069   8 O        2.919     5.634    -0.001
  1070   7 N        4.413     0.006    -0.000
  1071   6 C        4.444     0.134    -0.000
  1072   7 N        2.913     1.998    -0.001
  1073   7 N        3.460     4.101    -0.001
  1074   6 C        5.248     0.000    -0.000
  1075   1 H        2.179    14.195    -0.019
  1076   1 H        2.184    11.501    -0.015
  1077   1 H        2.231    15.090    -0.020
  1078   1 H        2.322     6.581    -0.009
  1079   1 H        2.552     1.202    -0.002
  1080   1 H        2.637     1.996    -0.003
  1081   1 H        2.489    11.802    -0.016
  1082   1 H        2.751     0.362    -0.000
  1083   1 H        4.551     0.065    -0.000
  1084   1 H        3.236     2.306    -0.003
  1085   1 H        2.300    17.749    -0.024
  1086  15 P        3.213     9.336    -0.001
  1087   8 O        2.198    23.331    -0.003
  1088   8 O        2.192    25.510    -0.003
  1089   8 O        2.860     0.115    -0.000
  1090   6 C        2.908     0.492    -0.000
  1091   6 C        3.336     0.220    -0.000
  1092   8 O        3.106     4.004    -0.001
  1093   6 C        3.394     0.107    -0.000
  1094   8 O        2.608     7.060    -0.001
  1095   6 C        3.467     0.018    -0.000
  1096   6 C        3.746     0.279    -0.000
  1097   7 N        3.963     0.005    -0.000
  1098   6 C        3.850     0.120    -0.000
  1099   8 O        2.773     4.832    -0.001
  1100   7 N        3.717     0.001    -0.000
  1101   6 C        4.224     0.000     0.000
  1102   8 O        2.765     6.322    -0.001
  1103   6 C        4.262     0.000    -0.000
  1104   6 C        2.981     1.577    -0.000
  1105   6 C        3.760     0.166    -0.000
  1106   1 H        2.170    14.283    -0.019
  1107   1 H        2.177    11.439    -0.015
  1108   1 H        2.231    14.913    -0.020
  1109   1 H        2.327     5.896    -0.008
  1110   1 H        2.484     2.514    -0.003
  1111   1 H        2.586     1.921    -0.003
  1112   1 H        2.476    10.449    -0.014
  1113   1 H        3.049     0.000    -0.000
  1114   1 H        2.440     5.107    -0.007
  1115   1 H        2.203    16.449    -0.022
  1116   1 H        2.395    10.166    -0.014
  1117   1 H        2.530     3.455    -0.005
  1118  15 P        3.206     9.259    -0.001
  1119   8 O        2.191    23.360    -0.003
  1120   8 O        2.197    24.462    -0.003
  1121   8 O        2.849     0.007    -0.000
  1122   6 C        2.871     0.672    -0.000
  1123   6 C        3.197     0.272    -0.000
  1124   8 O        2.889     8.767    -0.001
  1125   6 C        3.103     0.443    -0.000
  1126   8 O        2.231    26.996    -0.004
  1127   6 C        3.031     1.460    -0.000
  1128   6 C        3.377     0.511    -0.000
  1129   7 N        3.466     0.725    -0.000
  1130   6 C        3.286     6.650    -0.000
  1131   8 O        2.497    16.425    -0.002
  1132   7 N        3.302     2.619    -0.001
  1133   6 C        3.829     3.643    -0.000
  1134   7 N        2.917     3.306    -0.001
  1135   6 C        3.429     4.337    -0.000
  1136   6 C        3.348     2.408    -0.000
  1137   1 H        2.154    14.110    -0.019
  1138   1 H        2.161    11.218    -0.015
  1139   1 H        2.167    15.484    -0.021
  1140   1 H        2.292     6.627    -0.009
  1141   1 H        2.195    15.542    -0.021
  1142   1 H        2.143    16.171    -0.022
  1143   1 H        2.294    11.979    -0.016
  1144   1 H        2.900     2.737    -0.004
  1145   1 H        2.682     6.699    -0.009
  1146   1 H        2.333     7.407    -0.010
  1147   1 H        2.445     3.049    -0.004

 total SASA / Å² :     6402.565

     #   Z          covCN         q      C6AA      α(0)
     1   8 O        1.654    -0.394    20.728     6.146
     2   6 C        3.675     0.053    19.913     6.394
     3   6 C        3.783     0.085    19.188     6.240
     4   8 O        1.700    -0.268    18.447     5.799
     5   6 C        3.976     0.111    18.690     6.142
     6   8 O        1.657    -0.308    19.145     5.907
     7   6 C        3.744     0.079    19.340     6.273
     8   8 O        1.656    -0.419    21.211     6.217
     9   6 C        3.723     0.133    18.521     6.146
    10   7 N        2.842    -0.014    21.528     6.891
[...]
   877   6 C    3.912 --   872 O    0.985   878 N    0.944   875 C    0.935
                           892 H    0.932
   878   7 N    3.541 --   885 C    1.237   879 C    1.046   877 C    0.944
   879   6 C    3.947 --   880 O    1.553   881 N    1.254   878 N    1.046
   880   8 O    1.896 --   879 C    1.553   881 N    0.123
   881   7 N    3.009 --   882 C    1.338   879 C    1.254   880 O    0.123
                           883 N    0.111
   882   6 C    3.970 --   883 N    1.380   881 N    1.338   884 C    1.153
   883   7 N    3.447 --   882 C    1.380   894 H    0.917   893 H    0.864
                           881 N    0.111
   884   6 C    3.902 --   885 C    1.599   882 C    1.153   895 H    0.956
   885   6 C    3.937 --   884 C    1.599   878 N    1.237   896 H    0.929
   886   1 H    0.984 --   870 C    0.942
   887   1 H    0.983 --   870 C    0.953
   888   1 H    0.987 --   871 C    0.950
   889   1 H    0.998 --   873 C    0.952
   890   1 H    0.980 --   875 C    0.903
   891   1 H    0.881 --   876 O    0.835
   892   1 H    0.976 --   877 C    0.932
   893   1 H    0.927 --   883 N    0.864
   894   1 H    0.940 --   883 N    0.917
   895   1 H    0.989 --   884 C    0.956
   896   1 H    0.986 --   885 C    0.929
   897  15 P    5.640 --   898 O    1.684   899 O    1.680   900 O    1.130
                           874 O    1.094
   898   8 O    1.860 --   897 P    1.684
   899   8 O    1.860 --   897 P    1.680
   900   8 O    2.274 --   897 P    1.130   901 C    0.937
   901   6 C    3.918 --   902 C    0.995   918 H    0.958   900 O    0.937
                           917 H    0.930
   902   6 C    3.903 --   901 C    0.995   919 H    0.945   904 C    0.931
                           903 O    0.929
   903   8 O    2.088 --   908 C    0.989   902 C    0.929
   904   6 C    3.915 --   905 O    1.161   902 C    0.931   920 H    0.930
                           906 C    0.834
   905   8 O    1.398 --   904 C    1.161
   906   6 C    3.862 --   907 O    1.067   921 H    0.948   908 C    0.912
                           904 C    0.834
   907   8 O    2.037 --   906 C    1.067   922 H    0.839
   908   6 C    3.896 --   903 O    0.989   909 N    0.965   923 H    0.912
                           906 C    0.912
   909   7 N    3.570 --   916 C    1.224   910 C    1.044   908 C    0.965
   910   6 C    3.945 --   911 O    1.545   912 N    1.257   909 N    1.044
   911   8 O    1.941 --   910 C    1.545   912 N    0.128
   912   7 N    3.037 --   913 C    1.339   910 C    1.257   911 O    0.128
                           914 N    0.108
   913   6 C    3.967 --   914 N    1.388   912 N    1.339   915 C    1.145
   914   7 N    3.436 --   913 C    1.388   925 H    0.922   924 H    0.876
                           912 N    0.108
   915   6 C    3.900 --   916 C    1.615   913 C    1.145   926 H    0.957
   916   6 C    3.958 --   915 C    1.615   909 N    1.224   927 H    0.945
   917   1 H    0.989 --   901 C    0.930
   918   1 H    0.990 --   901 C    0.958
   919   1 H    0.987 --   902 C    0.945
   920   1 H    0.977 --   904 C    0.930
   921   1 H    0.982 --   906 C    0.948
   922   1 H    0.858 --   907 O    0.839
   923   1 H    0.965 --   908 C    0.912
   924   1 H    0.918 --   914 N    0.876
   925   1 H    0.940 --   914 N    0.922
   926   1 H    0.990 --   915 C    0.957
   927   1 H    0.990 --   916 C    0.945
   928   8 O    2.058 --   929 C    1.066   955 H    0.799
   929   6 C    3.818 --   928 O    1.066   945 H    0.946   930 C    0.905
                           944 H    0.841
   930   6 C    3.824 --   931 O    0.981   932 C    0.955   929 C    0.905
                           946 H    0.864
   931   8 O    2.202 --   935 C    1.009   930 C    0.981
   932   6 C    3.871 --   934 C    0.971   930 C    0.955   933 O    0.951
                           947 H    0.904
   933   8 O    2.241 --   956 P    1.074   932 C    0.951
   934   6 C    3.910 --   935 C    0.972   932 C    0.971   949 H    0.931
                           948 H    0.925
   935   6 C    3.877 --   931 O    1.009   934 C    0.972   936 N    0.947
                           950 H    0.845
   936   7 N    3.537 --   943 C    1.223   937 C    1.058   935 C    0.947
   937   6 C    3.954 --   938 O    1.596   939 N    1.211   936 N    1.058
   938   8 O    1.995 --   937 C    1.596   939 N    0.137
   939   7 N    3.038 --   940 C    1.348   937 C    1.211   938 O    0.137
                           941 N    0.106
   940   6 C    3.946 --   941 N    1.351   939 N    1.348   942 C    1.141
   941   7 N    3.439 --   940 C    1.351   952 H    0.891   951 H    0.885
                           939 N    0.106
   942   6 C    3.837 --   943 C    1.595   940 C    1.141   953 H    0.904
   943   6 C    3.899 --   942 C    1.595   936 N    1.223   954 H    0.897
   944   1 H    0.878 --   929 C    0.841
   945   1 H    0.972 --   929 C    0.946
   946   1 H    0.915 --   930 C    0.864
   947   1 H    0.960 --   932 C    0.904
   948   1 H    0.965 --   934 C    0.925
   949   1 H    0.967 --   934 C    0.931
   950   1 H    0.911 --   935 C    0.845
   951   1 H    0.956 --   941 N    0.885
   952   1 H    0.932 --   941 N    0.891
   953   1 H    0.943 --   942 C    0.904
   954   1 H    0.943 --   943 C    0.897
   955   1 H    0.832 --   928 O    0.799
   956  15 P    5.393 --   958 O    1.614   957 O    1.567   959 O    1.083
                           933 O    1.074
   957   8 O    1.759 --   956 P    1.567
   958   8 O    1.852 --   956 P    1.614
   959   8 O    2.259 --   956 P    1.083   960 C    0.979
   960   6 C    3.848 --   959 O    0.979   961 C    0.971   977 H    0.914
                           978 H    0.911
   961   6 C    3.881 --   962 O    0.982   960 C    0.971   963 C    0.953
                           979 H    0.887
   962   8 O    2.110 --   966 C    0.989   961 C    0.982
   963   6 C    3.861 --   965 C    0.977   961 C    0.953   980 H    0.934
                           964 O    0.917
   964   8 O    2.236 --   988 P    1.119   963 C    0.917
   965   6 C    3.892 --   963 C    0.977   966 C    0.963   981 H    0.929
                           982 H    0.920
   966   6 C    3.886 --   962 O    0.989   967 N    0.969   965 C    0.963
                           983 H    0.883
   967   7 N    3.619 --   968 C    1.202   976 C    1.191   966 C    0.969
   968   6 C    3.877 --   969 N    1.576   967 N    1.202   984 H    0.913
   969   7 N    3.020 --   968 C    1.576   970 C    1.208
   970   6 C    3.904 --   976 C    1.264   969 N    1.208   971 C    1.188
   971   6 C    3.962 --   972 N    1.371   973 N    1.258   970 C    1.188
   972   7 N    3.410 --   971 C    1.371   986 H    0.872   985 H    0.869
   973   7 N    2.950 --   974 C    1.399   971 C    1.258
   974   6 C    3.941 --   975 N    1.442   973 N    1.399   987 H    0.946
   975   7 N    2.984 --   974 C    1.442   976 C    1.265
   976   6 C    3.941 --   975 N    1.265   970 C    1.264   967 N    1.191
   977   1 H    0.939 --   960 C    0.914
   978   1 H    0.940 --   960 C    0.911
   979   1 H    0.922 --   961 C    0.887
   980   1 H    0.969 --   963 C    0.934
   981   1 H    0.953 --   965 C    0.929
   982   1 H    0.968 --   965 C    0.920
   983   1 H    0.915 --   966 C    0.883
   984   1 H    0.954 --   968 C    0.913
   985   1 H    0.920 --   972 N    0.869
   986   1 H    0.918 --   972 N    0.872
   987   1 H    0.990 --   974 C    0.946
   988  15 P    5.463 --   990 O    1.610   989 O    1.585   964 O    1.119
                           991 O    1.094
   989   8 O    1.753 --   988 P    1.585
   990   8 O    1.791 --   988 P    1.610
   991   8 O    2.254 --   988 P    1.094   992 C    0.954
   992   6 C    3.889 --   993 C    0.990   991 O    0.954  1011 H    0.945
                          1010 H    0.932
   993   6 C    3.924 --   992 C    0.990   994 O    0.967   995 C    0.957
                          1012 H    0.937
   994   8 O    2.069 --   998 C    0.981   993 C    0.967
   995   6 C    3.865 --   997 C    0.982   993 C    0.957  1013 H    0.923
                           996 O    0.923
   996   8 O    2.221 --  1021 P    1.104   995 C    0.923
   997   6 C    3.947 --   995 C    0.982   998 C    0.964  1015 H    0.956
                          1014 H    0.942
   998   6 C    3.911 --   994 O    0.981   999 N    0.966   997 C    0.964
                          1016 H    0.926
   999   7 N    3.618 --  1000 C    1.205  1009 C    1.179   998 C    0.966
  1000   6 C    3.866 --  1001 N    1.505   999 N    1.205  1017 H    0.917
  1001   7 N    3.027 --  1000 C    1.505  1002 C    1.266
  1002   6 C    3.921 --  1001 N    1.266  1009 C    1.226  1003 C    1.105
  1003   6 C    3.952 --  1004 O    1.657  1002 C    1.105  1005 N    1.091
  1004   8 O    2.090 --  1003 C    1.657  1005 N    0.135
  1005   7 N    3.512 --  1006 C    1.184  1003 C    1.091  1018 H    0.857
                          1004 O    0.135
  1006   6 C    3.958 --  1007 N    1.365  1008 N    1.322  1005 N    1.184
  1007   7 N    3.431 --  1006 C    1.365  1020 H    0.917  1019 H    0.884
  1008   7 N    3.006 --  1006 C    1.322  1009 C    1.315
  1009   6 C    3.943 --  1008 N    1.315  1002 C    1.226   999 N    1.179
  1010   1 H    0.957 --   992 C    0.932
  1011   1 H    0.975 --   992 C    0.945
  1012   1 H    0.971 --   993 C    0.937
  1013   1 H    0.959 --   995 C    0.923
  1014   1 H    0.975 --   997 C    0.942
  1015   1 H    0.985 --   997 C    0.956
  1016   1 H    0.958 --   998 C    0.926
  1017   1 H    0.962 --  1000 C    0.917
  1018   1 H    0.942 --  1005 N    0.857
  1019   1 H    0.936 --  1007 N    0.884
  1020   1 H    0.936 --  1007 N    0.917
  1021  15 P    5.522 --  1023 O    1.641  1022 O    1.609  1024 O    1.115
                           996 O    1.104
  1022   8 O    1.768 --  1021 P    1.609
  1023   8 O    1.813 --  1021 P    1.641
  1024   8 O    2.270 --  1021 P    1.115  1025 C    0.957
  1025   6 C    3.927 --  1026 C    0.993  1042 H    0.959  1024 O    0.957
                          1041 H    0.957
  1026   6 C    3.947 --  1025 C    0.993  1027 O    0.968  1028 C    0.961
                          1043 H    0.949
  1027   8 O    2.093 --  1031 C    0.974  1026 C    0.968
  1028   6 C    3.890 --  1030 C    0.979  1026 C    0.961  1044 H    0.953
                          1029 O    0.918
  1029   8 O    2.241 --  1053 P    1.116  1028 C    0.918
  1030   6 C    3.881 --  1028 C    0.979  1045 H    0.953  1031 C    0.914
                          1046 H    0.901
  1031   6 C    3.923 --  1032 N    0.980  1027 O    0.974  1047 H    0.941
                          1030 C    0.914
  1032   7 N    3.608 --  1040 C    1.244  1033 C    1.060  1031 C    0.980
  1033   6 C    3.955 --  1034 O    1.650  1035 N    1.173  1032 N    1.060
  1034   8 O    2.012 --  1033 C    1.650  1035 N    0.156
  1035   7 N    3.510 --  1033 C    1.173  1036 C    1.089  1048 H    0.862
                          1034 O    0.156  1037 O    0.134
  1036   6 C    3.950 --  1037 O    1.745  1035 N    1.089  1038 C    1.039
  1037   8 O    2.089 --  1036 C    1.745  1035 N    0.134
  1038   6 C    3.876 --  1040 C    1.441  1039 C    1.153  1036 C    1.039
  1039   6 C    3.809 --  1038 C    1.153  1049 H    0.935  1051 H    0.846
                          1050 H    0.702
  1040   6 C    3.848 --  1038 C    1.441  1032 N    1.244  1052 H    0.922
  1041   1 H    0.983 --  1025 C    0.957
  1042   1 H    0.984 --  1025 C    0.959
  1043   1 H    0.985 --  1026 C    0.949
  1044   1 H    0.986 --  1028 C    0.953
  1045   1 H    0.979 --  1030 C    0.953
  1046   1 H    0.965 --  1030 C    0.901
  1047   1 H    0.986 --  1031 C    0.941
  1048   1 H    0.924 --  1035 N    0.862
  1049   1 H    0.966 --  1039 C    0.935
  1050   1 H    0.801 --  1039 C    0.702
  1051   1 H    0.905 --  1039 C    0.846
  1052   1 H    0.966 --  1040 C    0.922
  1053  15 P    5.569 --  1055 O    1.648  1054 O    1.637  1029 O    1.116
                          1056 O    1.108
  1054   8 O    1.801 --  1053 P    1.637
  1055   8 O    1.826 --  1053 P    1.648
  1056   8 O    2.266 --  1053 P    1.108  1057 C    0.945
  1057   6 C    3.917 --  1058 C    0.995  1075 H    0.955  1076 H    0.954
                          1056 O    0.945
  1058   6 C    3.959 --  1057 C    0.995  1059 O    0.969  1060 C    0.968
                          1077 H    0.953
  1059   8 O    2.072 --  1063 C    0.972  1058 C    0.969
  1060   6 C    3.902 --  1062 C    0.985  1058 C    0.968  1078 H    0.955
                          1061 O    0.916
  1061   8 O    2.234 --  1086 P    1.115  1060 C    0.916
  1062   6 C    3.969 --  1060 C    0.985  1063 C    0.963  1079 H    0.958
                          1080 H    0.958
  1063   6 C    3.930 --  1064 N    0.975  1059 O    0.972  1062 C    0.963
                          1081 H    0.946
  1064   7 N    3.632 --  1065 C    1.237  1074 C    1.154  1063 C    0.975
  1065   6 C    3.861 --  1066 N    1.481  1064 N    1.237  1082 H    0.941
  1066   7 N    3.010 --  1065 C    1.481  1067 C    1.277
  1067   6 C    3.894 --  1066 N    1.277  1074 C    1.225  1068 C    1.101
  1068   6 C    3.962 --  1069 O    1.686  1067 C    1.101  1070 N    1.084
  1069   8 O    2.077 --  1068 C    1.686  1070 N    0.133
  1070   7 N    3.496 --  1071 C    1.188  1068 C    1.084  1083 H    0.847
                          1069 O    0.133
  1071   6 C    3.965 --  1072 N    1.396  1073 N    1.298  1070 N    1.188
  1072   7 N    3.426 --  1071 C    1.396  1085 H    0.911  1084 H    0.852
  1073   7 N    2.962 --  1074 C    1.337  1071 C    1.298
  1074   6 C    3.918 --  1073 N    1.337  1067 C    1.225  1064 N    1.154
  1075   1 H    0.984 --  1057 C    0.955
  1076   1 H    0.984 --  1057 C    0.954
  1077   1 H    0.992 --  1058 C    0.953
  1078   1 H    0.991 --  1060 C    0.955
  1079   1 H    0.989 --  1062 C    0.958
  1080   1 H    0.988 --  1062 C    0.958
  1081   1 H    0.988 --  1063 C    0.946
  1082   1 H    0.983 --  1065 C    0.941
  1083   1 H    0.932 --  1070 N    0.847
  1084   1 H    0.920 --  1072 N    0.852
  1085   1 H    0.929 --  1072 N    0.911
  1086  15 P    5.593 --  1087 O    1.648  1088 O    1.639  1089 O    1.135
                          1061 O    1.115
  1087   8 O    1.815 --  1086 P    1.648
  1088   8 O    1.815 --  1086 P    1.639
  1089   8 O    2.279 --  1086 P    1.135  1090 C    0.934
  1090   6 C    3.919 --  1091 C    0.995  1107 H    0.965  1106 H    0.957
                          1089 O    0.934
  1091   6 C    3.960 --  1090 C    0.995  1093 C    0.971  1092 O    0.967
                          1108 H    0.953
  1092   8 O    2.070 --  1096 C    0.969  1091 C    0.967
  1093   6 C    3.907 --  1095 C    0.983  1091 C    0.971  1109 H    0.958
                          1094 O    0.921
  1094   8 O    2.233 --  1118 P    1.107  1093 C    0.921
  1095   6 C    3.952 --  1093 C    0.983  1110 H    0.960  1096 C    0.960
                          1111 H    0.956
  1096   6 C    3.913 --  1092 O    0.969  1097 N    0.966  1095 C    0.960
                          1112 H    0.939
  1097   7 N    3.572 --  1105 C    1.216  1098 C    1.082  1096 C    0.966
  1098   6 C    3.953 --  1099 O    1.616  1100 N    1.179  1097 N    1.082
  1099   8 O    1.997 --  1098 C    1.616  1100 N    0.151
  1100   7 N    3.503 --  1098 C    1.179  1101 C    1.096  1113 H    0.847
                          1099 O    0.151  1102 O    0.142
  1101   6 C    3.968 --  1102 O    1.715  1100 N    1.096  1103 C    1.059
  1102   8 O    2.077 --  1101 C    1.715  1100 N    0.142
  1103   6 C    3.909 --  1105 C    1.519  1104 C    1.088  1101 C    1.059
  1104   6 C    3.883 --  1103 C    1.088  1114 H    0.928  1116 H    0.907
                          1115 H    0.826
  1105   6 C    3.887 --  1103 C    1.519  1097 N    1.216  1117 H    0.946
  1106   1 H    0.990 --  1090 C    0.957
  1107   1 H    0.996 --  1090 C    0.965
  1108   1 H    0.992 --  1091 C    0.953
  1109   1 H    0.994 --  1093 C    0.958
  1110   1 H    0.989 --  1095 C    0.960
  1111   1 H    0.986 --  1095 C    0.956
  1112   1 H    0.979 --  1096 C    0.939
  1113   1 H    0.904 --  1100 N    0.847
  1114   1 H    0.978 --  1104 C    0.928
  1115   1 H    0.898 --  1104 C    0.826
  1116   1 H    0.945 --  1104 C    0.907
  1117   1 H    0.988 --  1105 C    0.946
  1118  15 P    5.598 --  1119 O    1.658  1120 O    1.645  1121 O    1.131
                          1094 O    1.107
  1119   8 O    1.829 --  1118 P    1.658
  1120   8 O    1.822 --  1118 P    1.645
  1121   8 O    2.278 --  1118 P    1.131  1122 C    0.933
  1122   6 C    3.909 --  1123 C    0.995  1138 H    0.961  1137 H    0.946
                          1121 O    0.933
  1123   6 C    3.911 --  1122 C    0.995  1124 O    0.967  1139 H    0.948
                          1125 C    0.915
  1124   8 O    2.118 --  1128 C    0.976  1123 C    0.967
  1125   6 C    3.876 --  1126 O    1.140  1123 C    0.915  1140 H    0.911
                          1127 C    0.861
  1126   8 O    1.343 --  1125 C    1.140
  1127   6 C    3.850 --  1142 H    0.961  1141 H    0.960  1128 C    0.958
                          1125 C    0.861
  1128   6 C    3.899 --  1124 O    0.976  1129 N    0.976  1127 C    0.958
                          1143 H    0.903
  1129   7 N    3.564 --  1136 C    1.227  1130 C    1.037  1128 C    0.976
  1130   6 C    3.937 --  1131 O    1.573  1132 N    1.241  1129 N    1.037
  1131   8 O    1.937 --  1130 C    1.573  1132 N    0.127
  1132   7 N    3.015 --  1133 C    1.338  1130 C    1.241  1131 O    0.127
                          1134 N    0.115
  1133   6 C    3.971 --  1134 N    1.399  1132 N    1.338  1135 C    1.141
  1134   7 N    3.424 --  1133 C    1.399  1145 H    0.895  1144 H    0.844
                          1132 N    0.115
  1135   6 C    3.874 --  1136 C    1.617  1133 C    1.141  1146 H    0.946
  1136   6 C    3.946 --  1135 C    1.617  1129 N    1.227  1147 H    0.943
  1137   1 H    0.979 --  1122 C    0.946
  1138   1 H    0.994 --  1122 C    0.961
  1139   1 H    0.986 --  1123 C    0.948
  1140   1 H    0.956 --  1125 C    0.911
  1141   1 H    0.982 --  1127 C    0.960
  1142   1 H    0.981 --  1127 C    0.961
  1143   1 H    0.956 --  1128 C    0.903
  1144   1 H    0.912 --  1134 N    0.844
  1145   1 H    0.929 --  1134 N    0.895
  1146   1 H    0.982 --  1135 C    0.946
  1147   1 H    0.984 --  1136 C    0.943
 ---------------------------------------------------------------------------


molecular dipole:
                 x           y           z       tot (Debye)
 q only:     -293.310      35.144     214.714
   full:     -284.205      46.108     197.762     887.824
molecular quadrupole (traceless):
                xx          xy          yy          xz          yz          zz
 q only:     4564.035    -155.719   -3269.668   -2380.230    -398.766   -1294.367
  q+dip:     4326.139    -327.886   -2937.766   -2038.951    -359.184   -1388.372
   full:     4361.175    -369.359   -2947.754   -2061.993    -343.269   -1413.422


           -------------------------------------------------
          | TOTAL ENERGY            -2407.618445925413 Eh   |
          | GRADIENT NORM               0.798130537890 Eh/α |
          | HOMO-LUMO GAP               0.001054789784 eV   |
           -------------------------------------------------

------------------------------------------------------------------------
 * finished run on 2023/04/11 at 13:10:33.729     
------------------------------------------------------------------------
 total:
 * wall-time:     0 d,  0 h,  3 min, 37.792 sec
 *  cpu-time:     0 d,  0 h, 35 min, 25.605 sec
 * ratio c/w:     9.760 speedup
 SCF:
 * wall-time:     0 d,  0 h,  3 min, 34.422 sec
 *  cpu-time:     0 d,  0 h, 35 min, 15.363 sec
 * ratio c/w:     9.865 speedup

