      -----------------------------------------------------------      
     |                   =====================                   |     
     |                           x T B                           |     
     |                   =====================                   |     
     |                         S. Grimme                         |     
     |          Mulliken Center for Theoretical Chemistry        |     
     |                    University of Bonn                     |     
      -----------------------------------------------------------      

   * xtb version 6.5.1 (579679a) compiled by 'ehlert@majestix' on 2022-07-11

   xtb is free software: you can redistribute it and/or modify it under
   the terms of the GNU Lesser General Public License as published by
   the Free Software Foundation, either version 3 of the License, or
   (at your option) any later version.
   
   xtb is distributed in the hope that it will be useful,
   but WITHOUT ANY WARRANTY; without even the implied warranty of
   MERCHANTABILITY or FITNESS FOR A PARTICULAR PURPOSE.  See the
   GNU Lesser General Public License for more details.
   
   Cite this work as:
   * C. Bannwarth, E. Caldeweyher, S. Ehlert, A. Hansen, P. Pracht,
     J. Seibert, S. Spicher, S. Grimme, WIREs Comput. Mol. Sci., 2020, 11,
     e01493. DOI: 10.1002/wcms.1493
   
   for GFN2-xTB:
   * C. Bannwarth, S. Ehlert and S. Grimme., J. Chem. Theory Comput., 2019,
     15, 1652-1671. DOI: 10.1021/acs.jctc.8b01176
   for GFN1-xTB:
   * S. Grimme, C. Bannwarth, P. Shushkov, J. Chem. Theory Comput., 2017,
     13, 1989-2009. DOI: 10.1021/acs.jctc.7b00118
   for GFN0-xTB:
   * P. Pracht, E. Caldeweyher, S. Ehlert, S. Grimme, ChemRxiv, 2019, preprint.
     DOI: 10.26434/chemrxiv.8326202.v1
   for GFN-FF:
   * S. Spicher and S. Grimme, Angew. Chem. Int. Ed., 2020, 59, 15665-15673.
     DOI: 10.1002/anie.202004239
   
   for ALPB and GBSA implicit solvation:
   * S. Ehlert, M. Stahn, S. Spicher, S. Grimme, J. Chem. Theory Comput.,
     2021, 17, 4250-4261. DOI: 10.1021/acs.jctc.1c00471
   
   for DFT-D4:
   * E. Caldeweyher, C. Bannwarth and S. Grimme, J. Chem. Phys., 2017,
     147, 034112. DOI: 10.1063/1.4993215
   * E. Caldeweyher, S. Ehlert, A. Hansen, H. Neugebauer, S. Spicher,
     C. Bannwarth and S. Grimme, J. Chem. Phys., 2019, 150, 154122.
     DOI: 10.1063/1.5090222
   * E. Caldeweyher, J.-M. Mewes, S. Ehlert and S. Grimme, Phys. Chem. Chem. Phys.
     2020, 22, 8499-8512. DOI: 10.1039/D0CP00502A
   
   for sTDA-xTB:
   * S. Grimme and C. Bannwarth, J. Chem. Phys., 2016, 145, 054103.
     DOI: 10.1063/1.4959605
   
   in the mass-spec context:
   * V. Asgeirsson, C. Bauer and S. Grimme, Chem. Sci., 2017, 8, 4879.
     DOI: 10.1039/c7sc00601b
   * J. Koopman and S. Grimme, ACS Omega 2019, 4, 12, 15120-15133.
     DOI: 10.1021/acsomega.9b02011
   
   for metadynamics refer to:
   * S. Grimme, J. Chem. Theory Comput., 2019, 155, 2847-2862
     DOI: 10.1021/acs.jctc.9b00143
   
   for SPH calculations refer to:
   * S. Spicher and S. Grimme, J. Chem. Theory Comput., 2021, 17, 1701-1714
     DOI: 10.1021/acs.jctc.0c01306
   
   with help from (in alphabetical order)
   P. Atkinson, C. Bannwarth, F. Bohle, G. Brandenburg, E. Caldeweyher
   M. Checinski, S. Dohm, S. Ehlert, S. Ehrlich, I. Gerasimov, C. Hölzer
   A. Katbashev, J. Koopman, C. Lavigne, S. Lehtola, F. März, M. Müller,
   F. Musil, H. Neugebauer, J. Pisarek, C. Plett, P. Pracht, F. Pultar,
   J. Seibert, P. Shushkov, S. Spicher, M. Stahn, M. Steiner, T. Strunk,
   J. Stückrath, T. Rose, and J. Unsleber
   
 * started run on 2023/03/21 at 23:41:28.193     

           -------------------------------------------------
          |                Calculation Setup                |
           -------------------------------------------------

          program call               : /N/u/schandy/BigRed3/bin/xtb-6.5.1/bin/xtb 5IZP_min.xyz --gbsa water
          hostname                   : nid00053
          coordinate file            : 5IZP_min.xyz
          omp threads                :                    10

   ID    Z sym.   atoms
    1    8 O      1, 4, 6, 11, 30-32, 35, 37, 45, 63-65, 68, 70, 75, 93-95,
                  98, 100, 108, 126-128, 131, 133, 158-160, 163, 165,
                  190-192, 195, 197, 202, 205, 222-224, 227, 229, 234, 237,
                  254-256, 259, 261, 266, 284-286, 289, 291, 299, 305,
                  318-320, 323, 325, 330, 348-350, 353, 355, 363, 381, 384,
                  386, 391, 410-412, 415, 417, 425, 443-445, 448, 450, 455,
                  473-475, 478, 480, 488, 506-508, 511, 513, 538-540, 543,
                  545, 570-572, 575, 577, 582, 585, 602-604, 607, 609, 614,
                  617, 634-636, 639, 641, 646, 664-666, 669, 671, 679, 685,
                  698-700, 703, 705, 710, 728-730, 733, 735, 743
    2    6 C      2, 3, 5, 7, 8, 10, 13, 15, 16, 33, 34, 36, 38, 39, 41, 43,
                  44, 47, 50, 66, 67, 69, 71, 72, 74, 77, 79, 80, 96, 97, 99,
                  101, 102, 104, 106, 107, 110, 113, 129, 130, 132, 134, 135,
                  137, 139, 140, 143, 145, 161, 162, 164, 166, 167, 169, 171,
                  172, 175, 177, 193, 194, 196, 198, 199, 201, 204, 206-208,
                  225, 226, 228, 230, 231, 233, 236, 238-240, 257, 258, 260,
                  262, 263, 265, 268, 270, 271, 287, 288, 290, 292, 293, 295,
                  297, 298, 301, 304, 321, 322, 324, 326, 327, 329, 332, 334,
                  335, 351, 352, 354, 356, 357, 359, 361, 362, 365, 368, 382,
                  383, 385, 387, 388, 390, 393, 395, 396, 413, 414, 416, 418,
                  419, 421, 423, 424, 427, 430, 446, 447, 449, 451, 452, 454,
                  457, 459, 460, 476, 477, 479, 481, 482, 484, 486, 487, 490,
                  493, 509, 510, 512, 514, 515, 517, 519, 520, 523, 525, 541,
                  542, 544, 546, 547, 549, 551, 552, 555, 557, 573, 574, 576,
                  578, 579, 581, 584, 586-588, 605, 606, 608, 610, 611, 613,
                  616, 618-620, 637, 638, 640, 642, 643, 645, 648, 650, 651,
                  667, 668, 670, 672, 673, 675, 677, 678, 681, 684, 701, 702,
                  704, 706, 707, 709, 712, 714, 715, 731, 732, 734, 736, 737,
                  739, 741, 742, 745, 748
    3    7 N      9, 12, 14, 40, 42, 46, 48, 49, 73, 76, 78, 103, 105, 109,
                  111, 112, 136, 138, 141, 142, 144, 168, 170, 173, 174, 176,
                  200, 203, 232, 235, 264, 267, 269, 294, 296, 300, 302, 303,
                  328, 331, 333, 358, 360, 364, 366, 367, 389, 392, 394, 420,
                  422, 426, 428, 429, 453, 456, 458, 483, 485, 489, 491, 492,
                  516, 518, 521, 522, 524, 548, 550, 553, 554, 556, 580, 583,
                  612, 615, 644, 647, 649, 674, 676, 680, 682, 683, 708, 711,
                  713, 738, 740, 744, 746, 747
    4    1 H      17-28, 51-61, 81-91, 114-124, 146-156, 178-188, 209-220,
                  241-252, 272-282, 306-316, 336-346, 369-380, 397-408,
                  431-441, 461-471, 494-504, 526-536, 558-568, 589-600,
                  621-632, 652-662, 686-696, 716-726, 749-760
    5   15 P      29, 62, 92, 125, 157, 189, 221, 253, 283, 317, 347, 409,
                  442, 472, 505, 537, 569, 601, 633, 663, 697, 727

molecular fragmentation (1/2 indicates fragments):
111111111111111111111111111111111111111111111111111111111111111111111111
111111111111111111111111111111111111111111111111111111111111111111111111
111111111111111111111111111111111111111111111111111111111111111111111111
111111111111111111111111111111111111111111111111111111111111111111111111
111111111111111111111111111111111111111111111111111111111111111111111111
111111111111111111112222222222222222222222222222222222222222222222222222
222222222222222222222222222222222222222222222222222222222222222222222222
222222222222222222222222222222222222222222222222222222222222222222222222
222222222222222222222222222222222222222222222222222222222222222222222222
222222222222222222222222222222222222222222222222222222222222222222222222
2222222222222222222222222222222222222222
# atoms in fragment 1/2:   380   380
 fragment masses (1/2) :     3651.30     3651.30
CMA distance (Bohr)    :   2.550
constraining FC (au)   :  0.0500

           -------------------------------------------------
          |                 G F N 2 - x T B                 |
           -------------------------------------------------

        Reference                      10.1021/acs.jctc.8b01176
      * Hamiltonian:
        H0-scaling (s, p, d)           1.850000    2.230000    2.230000
        zeta-weighting                 0.500000
      * Dispersion:
        s8                             2.700000
        a1                             0.520000
        a2                             5.000000
        s9                             5.000000
      * Repulsion:
        kExp                           1.500000    1.000000
        rExp                           1.000000
      * Coulomb:
        alpha                          2.000000
        third order                    shell-resolved
        anisotropic                    true
        a3                             3.000000
        a5                             4.000000
        cn-shift                       1.200000
        cn-exp                         4.000000
        max-rad                        5.000000

      * Solvation model:               GBSA
        Solvent                        water
        Parameter file                 internal GFN2-xTB/GBSA
        Dielectric constant                8.0200E+01
        Reference state                gsolv [1 M gas/solution]
        Free energy shift                  1.8574E-03 Eh       1.1656E+00 kcal/mol
        Temperature                        2.9815E+02 K
        Density                            1.0000E+00 kg/L
        Solvent mass                       1.8000E+01 g/mol
        Interaction kernel             Still
        Born radius scaling (c1)           1.5524E+00
        Born radii integrator          GBOBC
        Born offset                        2.4628E-02 a0       4.6540E-02 AA
        H-bond correction              true
        Ion screening                  false
        Surface tension                    1.0000E-05 Eh       1.5569E+01 dyn/cm
        Grid points                               230 per atom
q/qsh data taken from xtbrestart
CAMM data taken from xtbrestart

          ...................................................
          :                      SETUP                      :
          :.................................................:
          :  # basis functions                2356          :
          :  # atomic orbitals                2334          :
          :  # shells                         1270          :
          :  # electrons                      2622          :
          :  max. iterations                   250          :
          :  Hamiltonian                  GFN2-xTB          :
          :  restarted?                       true          :
          :  GBSA solvation                   true          :
          :  PC potential                    false          :
          :  electronic temp.          300.0000000     K    :
          :  accuracy                    1.0000000          :
          :  -> integral cutoff          0.2500000E+02      :
          :  -> integral neglect         0.1000000E-07      :
          :  -> SCF convergence          0.1000000E-05 Eh   :
          :  -> wf. convergence          0.1000000E-03 e    :
          :  Broyden damping             0.4000000          :
          ...................................................

 iter      E             dE          RMSdq      gap      omega  full diag
   1  -1554.0880288 -0.155409E+04  0.142E+00    0.00       0.0  T
   2  -1553.2267384  0.861290E+00  0.174E+00    0.00       1.0  T
   3  -1553.4309871 -0.204249E+00  0.160E+00    0.00       1.0  T
   4  -1553.7475395 -0.316552E+00  0.141E+00    0.00       1.0  T
   5  -1555.1339938 -0.138645E+01  0.105E+00    0.01       1.0  T
   6  -1554.7106261  0.423368E+00  0.109E+00    0.00       1.0  T
   7  -1555.1897520 -0.479126E+00  0.943E-01    0.00       1.0  T
   8  -1555.0753953  0.114357E+00  0.957E-01    0.00       1.0  T
   9  -1555.6270634 -0.551668E+00  0.841E-01    0.00       1.0  T
  10  -1555.9891138 -0.362050E+00  0.658E-01    0.00       1.0  T
  11  -1555.4201296  0.568984E+00  0.818E-01    0.01       1.0  T
  12  -1555.6610154 -0.240886E+00  0.792E-01    0.01       1.0  T
  13  -1556.1261307 -0.465115E+00  0.535E-01    0.00       1.0  T
  14  -1555.9946149  0.131516E+00  0.592E-01    0.00       1.0  T
  15  -1555.9436533  0.509615E-01  0.589E-01    0.01       1.0  T
  16  -1556.2299124 -0.286259E+00  0.421E-01    0.00       1.0  T
  17  -1556.1454988  0.844137E-01  0.535E-01    0.00       1.0  T
  18  -1556.2997310 -0.154232E+00  0.383E-01    0.00       1.0  T
  19  -1556.3439910 -0.442601E-01  0.313E-01    0.00       1.0  T
  20  -1556.2770157  0.669753E-01  0.390E-01    0.01       1.0  T
  21  -1556.2036408  0.733750E-01  0.423E-01    0.00       1.0  T
  22  -1556.3651515 -0.161511E+00  0.286E-01    0.00       1.0  T
  23  -1556.3959064 -0.307549E-01  0.255E-01    0.00       1.0  T
  24  -1556.3588868  0.370196E-01  0.309E-01    0.00       1.0  T
  25  -1556.4288199 -0.699330E-01  0.194E-01    0.00       1.0  T
  26  -1556.4199470  0.887285E-02  0.222E-01    0.00       1.0  T
  27  -1556.4303188 -0.103717E-01  0.194E-01    0.00       1.0  T
  28  -1556.4336946 -0.337583E-02  0.185E-01    0.00       1.0  T
  29  -1556.4526240 -0.189294E-01  0.132E-01    0.00       1.0  T
  30  -1556.4617393 -0.911528E-02  0.952E-02    0.00       1.0  T
  31  -1556.4615479  0.191325E-03  0.927E-02    0.00       1.0  T
  32  -1556.4569546  0.459329E-02  0.102E-01    0.00       1.0  T
  33  -1556.4682210 -0.112664E-01  0.621E-02    0.00       1.0  T
  34  -1556.4680247  0.196327E-03  0.670E-02    0.00       1.0  T
  35  -1556.4692665 -0.124178E-02  0.528E-02    0.00       1.0  T
  36  -1556.4708700 -0.160349E-02  0.423E-02    0.00       1.0  T
  37  -1556.4714446 -0.574577E-03  0.408E-02    0.00       1.0  T
  38  -1556.4723066 -0.861985E-03  0.296E-02    0.00       1.0  T
  39  -1556.4722735  0.330470E-04  0.295E-02    0.00       1.0  T
  40  -1556.4727995 -0.525947E-03  0.220E-02    0.00       1.0  T
  41  -1556.4729097 -0.110213E-03  0.220E-02    0.00       1.0  T
  42  -1556.4731042 -0.194508E-03  0.173E-02    0.00       1.0  T
  43  -1556.4731591 -0.549491E-04  0.161E-02    0.00       1.0  T
  44  -1556.4732629 -0.103802E-03  0.138E-02    0.00       1.0  T
  45  -1556.4733422 -0.792600E-04  0.118E-02    0.00       1.0  T
  46  -1556.4733831 -0.408818E-04  0.107E-02    0.00       1.0  T
  47  -1556.4734226 -0.395515E-04  0.847E-03    0.00       1.0  T
  48  -1556.4734491 -0.264754E-04  0.736E-03    0.00       1.0  T
  49  -1556.4734769 -0.278380E-04  0.588E-03    0.00       1.0  T
  50  -1556.4734866 -0.970602E-05  0.507E-03    0.00       1.0  T
  51  -1556.4734948 -0.813334E-05  0.419E-03    0.00       1.0  T
  52  -1556.4734886  0.619901E-05  0.474E-03    0.00       1.0  T
  53  -1556.4735002 -0.116133E-04  0.374E-03    0.00       1.0  T
  54  -1556.4735056 -0.545741E-05  0.300E-03    0.00       1.2  T
  55  -1556.4735072 -0.153994E-05  0.281E-03    0.00       1.3  T
  56  -1556.4735067  0.506244E-06  0.271E-03    0.00       1.3  T
  57  -1556.4735110 -0.428353E-05  0.217E-03    0.00       1.7  T
  58  -1556.4735136 -0.268202E-05  0.143E-03    0.00       2.5  T
  59  -1556.4735138 -0.114218E-06  0.143E-03    0.00       2.5  T
  60  -1556.4735138 -0.296729E-07  0.135E-03    0.00       2.7  T
  61  -1556.4735142 -0.443625E-06  0.118E-03    0.00       3.1  T
  62  -1556.4735138  0.408872E-06  0.130E-03    0.00       2.8  T
  63  -1556.4735151 -0.129021E-05  0.845E-04    0.00       4.3  T
  64  -1556.4735147  0.437788E-06  0.110E-03    0.00       3.3  T
  65  -1556.4735152 -0.565136E-06  0.860E-04    0.00       4.2  T
  66  -1556.4735157 -0.455107E-06  0.568E-04    0.00       6.4  T

   *** convergence criteria satisfied after 66 iterations ***

         #    Occupation            Energy/Eh            Energy/eV
      -------------------------------------------------------------
         1        2.0000           -0.7966205             -21.6771
       ...           ...                  ...                  ...
      1305        1.5823           -0.4378119             -11.9135
      1306        1.5784           -0.4378008             -11.9132
      1307        1.5528           -0.4377291             -11.9112
      1308        1.5451           -0.4377082             -11.9106
      1309        1.4860           -0.4375553             -11.9065
      1310        1.4797           -0.4375396             -11.9061
      1311        1.4503           -0.4374682             -11.9041 (HOMO)
      1312        1.4465           -0.4374593             -11.9039 (LUMO)
      1313        1.3323           -0.4372029             -11.8969
      1314        1.3250           -0.4371874             -11.8965
      1315        1.3101           -0.4371558             -11.8956
      1316        1.2858           -0.4371052             -11.8942
       ...           ...                  ...                  ...
      2334                          1.2543335              34.1322
      -------------------------------------------------------------
                  HL-Gap            0.0000089 Eh            0.0002 eV
             Fermi-level           -0.4365466 Eh          -11.8790 eV

 SCC (total)                   0 d,  0 h,  0 min, 50.971 sec
 SCC setup                      ...        0 min,  0.080 sec (  0.156%)
 Dispersion                     ...        0 min,  0.293 sec (  0.576%)
 classical contributions        ...        0 min,  0.004 sec (  0.008%)
 integral evaluation            ...        0 min,  0.630 sec (  1.235%)
 iterations                     ...        0 min, 47.667 sec ( 93.518%)
 molecular gradient             ...        0 min,  2.191 sec (  4.299%)
 printout                       ...        0 min,  0.106 sec (  0.208%)

         :::::::::::::::::::::::::::::::::::::::::::::::::::::
         ::                     SUMMARY                     ::
         :::::::::::::::::::::::::::::::::::::::::::::::::::::
         :: total energy           -1541.774752337606 Eh    ::
         :: total w/o Gsasa/hb     -1541.630627183968 Eh    ::
         :: gradient norm              0.573150268562 Eh/a0 ::
         :: HOMO-LUMO gap              0.000241695660 eV    ::
         ::.................................................::
         :: SCC energy             -1556.473515691714 Eh    ::
         :: -> isotropic ES            6.823398235568 Eh    ::
         :: -> anisotropic ES         -0.891467122662 Eh    ::
         :: -> anisotropic XC          0.269628155768 Eh    ::
         :: -> dispersion             -1.308257391375 Eh    ::
         :: -> Gsolv                  -2.257330846708 Eh    ::
         ::    -> Gelec               -2.113205693070 Eh    ::
         ::    -> Gsasa               -0.001981929115 Eh    ::
         ::    -> Ghb                 -0.144000667650 Eh    ::
         ::    -> Gshift               0.001857443127 Eh    ::
         :: repulsion energy          14.577273070425 Eh    ::
         :: add. restraining           0.000000000000 Eh    ::
         :: total charge               0.000000000329 e     ::
         :::::::::::::::::::::::::::::::::::::::::::::::::::::

           -------------------------------------------------
          |                Property Printout                |
           -------------------------------------------------

    * Orbital Energies and Occupations

         #    Occupation            Energy/Eh            Energy/eV
      -------------------------------------------------------------
         1        2.0000           -0.7966205             -21.6771
       ...           ...                  ...                  ...
      1299        1.6976           -0.4381856             -11.9236
      1300        1.6940           -0.4381723             -11.9233
      1301        1.6685           -0.4380819             -11.9208
      1302        1.6635           -0.4380648             -11.9204
      1303        1.6239           -0.4379364             -11.9169
      1304        1.6202           -0.4379248             -11.9165
      1305        1.5823           -0.4378119             -11.9135
      1306        1.5784           -0.4378008             -11.9132
      1307        1.5528           -0.4377291             -11.9112
      1308        1.5451           -0.4377082             -11.9106
      1309        1.4860           -0.4375553             -11.9065
      1310        1.4797           -0.4375396             -11.9061
      1311        1.4503           -0.4374682             -11.9041 (HOMO)
      1312        1.4465           -0.4374593             -11.9039 (LUMO)
      1313        1.3323           -0.4372029             -11.8969
      1314        1.3250           -0.4371874             -11.8965
      1315        1.3101           -0.4371558             -11.8956
      1316        1.2858           -0.4371052             -11.8942
      1317        1.1658           -0.4368646             -11.8877
      1318        1.1530           -0.4368397             -11.8870
      1319        1.1259           -0.4367872             -11.8856
      1320        0.9662           -0.4364824             -11.8773
      1321        0.8873           -0.4363315             -11.8732
      1322        0.8787           -0.4363150             -11.8727
       ...           ...                  ...                  ...
      2334                          1.2543335              34.1322
      -------------------------------------------------------------
                  HL-Gap            0.0000089 Eh            0.0002 eV
             Fermi-level           -0.4365466 Eh          -11.8790 eV

 * generalized Born model for continuum solvation

     #   Z     Born rad/Å   SASA/Å²    H-bond
     1   8 O        2.284     6.475    -0.001
     2   6 C        2.723     0.877    -0.000
     3   6 C        3.120     0.288    -0.000
     4   8 O        2.782    10.002    -0.001
     5   6 C        3.204     0.284    -0.000
     6   8 O        2.589     5.053    -0.001
     7   6 C        3.203     0.554    -0.000
     8   6 C        3.427     0.402    -0.000
     9   7 N        3.373     0.629    -0.000
    10   6 C        3.354     4.258    -0.000
    11   8 O        2.630     7.451    -0.001
    12   7 N        3.245     2.222    -0.001
    13   6 C        3.395     4.029    -0.000
    14   7 N        2.558     4.571    -0.001
    15   6 C        3.046     7.945    -0.000
    16   6 C        3.094     5.814    -0.000
    17   1 H        2.059    18.573    -0.025
    18   1 H        2.071    17.120    -0.023
    19   1 H        2.143    16.218    -0.022
    20   1 H        2.221     8.502    -0.011
    21   1 H        2.311     8.892    -0.012
    22   1 H        2.349     1.170    -0.002
    23   1 H        2.367     7.031    -0.009
    24   1 H        2.469     2.382    -0.003
    25   1 H        2.151    20.077    -0.027
    26   1 H        2.080    18.418    -0.025
    27   1 H        2.219     7.723    -0.010
    28   1 H        1.919    23.050    -0.031
    29  15 P        3.148     9.870    -0.001
    30   8 O        2.167    24.903    -0.003
    31   8 O        2.185    24.100    -0.003
    32   8 O        2.607     1.730    -0.000
    33   6 C        2.831     0.466    -0.000
    34   6 C        3.246     0.194    -0.000
    35   8 O        2.965     3.987    -0.001
    36   6 C        3.272     0.154    -0.000
    37   8 O        2.634     4.179    -0.001
    38   6 C        3.284     0.355    -0.000
    39   6 C        3.612     0.384    -0.000
    40   7 N        3.882     0.009    -0.000
    41   6 C        3.312     1.341    -0.000
    42   7 N        2.968     8.095    -0.002
    43   6 C        4.392     0.008    -0.000
    44   6 C        3.786     0.017    -0.000
    45   8 O        2.730     4.895    -0.001
    46   7 N        3.778     0.000    -0.000
    47   6 C        4.117     0.007    -0.000
    48   7 N        2.814     0.988    -0.000
    49   7 N        3.343     2.276    -0.001
    50   6 C        4.548     0.062    -0.000
    51   1 H        2.149    11.894    -0.016
    52   1 H        2.119    14.393    -0.019
    53   1 H        2.207    14.646    -0.020
    54   1 H        2.239     9.232    -0.012
    55   1 H        2.337     8.515    -0.011
    56   1 H        2.394     0.876    -0.001
    57   1 H        2.477     5.491    -0.007
    58   1 H        2.314     8.055    -0.011
    59   1 H        3.536     0.000    -0.000
    60   1 H        2.684     2.554    -0.003
    61   1 H        2.290    18.217    -0.024
    62  15 P        3.174    10.003    -0.001
    63   8 O        2.169    25.549    -0.004
    64   8 O        2.202    22.864    -0.003
    65   8 O        2.624     1.772    -0.000
    66   6 C        2.859     0.457    -0.000
    67   6 C        3.272     0.200    -0.000
    68   8 O        3.044     2.117    -0.000
    69   6 C        3.273     0.256    -0.000
    70   8 O        2.635     4.561    -0.001
    71   6 C        3.258     0.607    -0.000
    72   6 C        3.674     0.025    -0.000
    73   7 N        3.716    -0.013     0.000
    74   6 C        3.769     0.001    -0.000
    75   8 O        2.876     2.670    -0.000
    76   7 N        3.695     0.000    -0.000
    77   6 C        3.774     1.240    -0.000
    78   7 N        2.677     2.972    -0.001
    79   6 C        3.293     4.171    -0.000
    80   6 C        3.347     2.906    -0.000
    81   1 H        2.180    10.916    -0.015
    82   1 H        2.128    14.002    -0.019
    83   1 H        2.209    15.428    -0.021
    84   1 H        2.226     9.714    -0.013
    85   1 H        2.332     9.904    -0.013
    86   1 H        2.326     2.897    -0.004
    87   1 H        2.495     3.983    -0.005
    88   1 H        2.571     3.396    -0.005
    89   1 H        2.218    18.359    -0.025
    90   1 H        2.161    15.005    -0.020
    91   1 H        2.335     5.677    -0.008
    92  15 P        3.176     9.816    -0.001
    93   8 O        2.175    24.986    -0.003
    94   8 O        2.199    23.354    -0.003
    95   8 O        2.632     1.339    -0.000
    96   6 C        2.863     0.490    -0.000
    97   6 C        3.289     0.195    -0.000
    98   8 O        3.009     3.470    -0.000
    99   6 C        3.314     0.165    -0.000
   100   8 O        2.657     4.063    -0.001
   101   6 C        3.310     0.454    -0.000
   102   6 C        3.679     0.092    -0.000
   103   7 N        3.964     0.000    -0.000
   104   6 C        3.324     3.125    -0.000
   105   7 N        2.979     9.036    -0.003
   106   6 C        4.507     0.023    -0.000
   107   6 C        3.926     0.026    -0.000
   108   8 O        2.744     5.792    -0.001
   109   7 N        3.967     0.000    -0.000
   110   6 C        4.349     0.049    -0.000
   111   7 N        2.905     0.593    -0.000
   112   7 N        3.463     2.270    -0.001
   113   6 C        4.743     0.001    -0.000
   114   1 H        2.172    11.541    -0.015
   115   1 H        2.140    13.630    -0.018
   116   1 H        2.225    14.974    -0.020
   117   1 H        2.257     8.880    -0.012
   118   1 H        2.335    10.139    -0.014
   119   1 H        2.425     0.843    -0.001
   120   1 H        2.511     5.436    -0.007
   121   1 H        2.310     8.147    -0.011
   122   1 H        3.635     0.002    -0.000
   123   1 H        2.779     1.419    -0.002
   124   1 H        2.350    15.586    -0.021
   125  15 P        3.199     9.350    -0.001
   126   8 O        2.179    25.202    -0.003
   127   8 O        2.217    22.081    -0.003
   128   8 O        2.666     0.574    -0.000
   129   6 C        2.882     0.482    -0.000
   130   6 C        3.274     0.330    -0.000
   131   8 O        2.992     4.468    -0.001
   132   6 C        3.297     0.255    -0.000
   133   8 O        2.640     4.467    -0.001
   134   6 C        3.306     0.468    -0.000
   135   6 C        3.685     0.090    -0.000
   136   7 N        4.022     0.004    -0.000
   137   6 C        3.361     2.738    -0.000
   138   7 N        3.007     8.842    -0.003
   139   6 C        4.823     0.005    -0.000
   140   6 C        4.467     0.000    -0.000
   141   7 N        2.868     0.290    -0.000
   142   7 N        3.896     0.003    -0.000
   143   6 C        3.561     0.350    -0.000
   144   7 N        3.237     4.365    -0.001
   145   6 C        4.787     0.007    -0.000
   146   1 H        2.178    11.629    -0.016
   147   1 H        2.147    13.097    -0.017
   148   1 H        2.197    16.047    -0.021
   149   1 H        2.247     9.450    -0.013
   150   1 H        2.364     9.029    -0.012
   151   1 H        2.392     1.521    -0.002
   152   1 H        2.516     4.759    -0.006
   153   1 H        2.354     6.291    -0.008
   154   1 H        2.748     1.350    -0.002
   155   1 H        2.355    12.837    -0.017
   156   1 H        2.472     7.095    -0.009
   157  15 P        3.178    10.147    -0.001
   158   8 O        2.173    25.358    -0.003
   159   8 O        2.199    23.566    -0.003
   160   8 O        2.638     1.968    -0.000
   161   6 C        2.870     0.477    -0.000
   162   6 C        3.297     0.166    -0.000
   163   8 O        3.056     3.227    -0.000
   164   6 C        3.307     0.080    -0.000
   165   8 O        2.647     4.267    -0.001
   166   6 C        3.323     0.320    -0.000
   167   6 C        3.690     0.326    -0.000
   168   7 N        4.060     0.002    -0.000
   169   6 C        3.422     0.433    -0.000
   170   7 N        3.050     7.387    -0.002
   171   6 C        4.846     0.017    -0.000
   172   6 C        4.398     0.000    -0.000
   173   7 N        2.864     0.178    -0.000
   174   7 N        3.816     0.007    -0.000
   175   6 C        3.525     0.172    -0.000
   176   7 N        3.193     4.770    -0.001
   177   6 C        4.746     0.040    -0.000
   178   1 H        2.186    11.306    -0.015
   179   1 H        2.133    14.264    -0.019
   180   1 H        2.225    14.943    -0.020
   181   1 H        2.257     8.651    -0.012
   182   1 H        2.365     6.752    -0.009
   183   1 H        2.415     0.923    -0.001
   184   1 H        2.488     6.785    -0.009
   185   1 H        2.361     7.007    -0.009
   186   1 H        2.789     0.988    -0.001
   187   1 H        2.343    13.860    -0.019
   188   1 H        2.474     5.738    -0.008
   189  15 P        3.178    10.235    -0.001
   190   8 O        2.173    25.475    -0.003
   191   8 O        2.199    23.786    -0.003
   192   8 O        2.634     2.506    -0.000
   193   6 C        2.871     0.510    -0.000
   194   6 C        3.319     0.189    -0.000
   195   8 O        3.085     2.381    -0.000
   196   6 C        3.328     0.045    -0.000
   197   8 O        2.650     4.329    -0.001
   198   6 C        3.395     0.012    -0.000
   199   6 C        3.743     0.194    -0.000
   200   7 N        3.843     0.000    -0.000
   201   6 C        3.767     0.023    -0.000
   202   8 O        2.643     6.520    -0.001
   203   7 N        3.504     0.000    -0.000
   204   6 C        3.665     0.010    -0.000
   205   8 O        2.677     7.114    -0.001
   206   6 C        3.874     0.000     0.000
   207   6 C        2.779     2.263    -0.000
   208   6 C        3.597     0.002    -0.000
   209   1 H        2.189    11.037    -0.015
   210   1 H        2.132    14.625    -0.020
   211   1 H        2.243    14.091    -0.019
   212   1 H        2.270     8.593    -0.011
   213   1 H        2.433     4.192    -0.006
   214   1 H        2.503     0.031    -0.000
   215   1 H        2.492     6.987    -0.009
   216   1 H        3.302     0.019    -0.000
   217   1 H        2.185    11.727    -0.016
   218   1 H        2.142    16.143    -0.022
   219   1 H        2.236     9.021    -0.012
   220   1 H        2.435     3.318    -0.004
   221  15 P        3.187    10.353    -0.001
   222   8 O        2.173    25.594    -0.004
   223   8 O        2.207    23.298    -0.003
   224   8 O        2.645     2.154    -0.000
   225   6 C        2.876     0.500    -0.000
   226   6 C        3.303     0.138    -0.000
   227   8 O        3.072     2.642    -0.000
   228   6 C        3.315     0.083    -0.000
   229   8 O        2.644     4.596    -0.001
   230   6 C        3.381     0.178    -0.000
   231   6 C        3.714     0.170    -0.000
   232   7 N        3.819     0.000    -0.000
   233   6 C        3.734     0.017    -0.000
   234   8 O        2.652     6.044    -0.001
   235   7 N        3.505     0.004    -0.000
   236   6 C        3.728     0.001    -0.000
   237   8 O        2.700     5.228    -0.001
   238   6 C        3.952     0.006    -0.000
   239   6 C        2.815     2.446    -0.000
   240   6 C        3.609     0.074    -0.000
   241   1 H        2.193    10.919    -0.015
   242   1 H        2.134    14.448    -0.019
   243   1 H        2.228    14.958    -0.020
   244   1 H        2.258     8.343    -0.011
   245   1 H        2.424     5.348    -0.007
   246   1 H        2.505     0.025    -0.000
   247   1 H        2.466     7.648    -0.010
   248   1 H        3.362     0.006    -0.000
   249   1 H        2.188    12.371    -0.017
   250   1 H        2.274     5.268    -0.007
   251   1 H        2.205    11.884    -0.016
   252   1 H        2.456     3.183    -0.004
   253  15 P        3.178    10.404    -0.001
   254   8 O        2.173    25.464    -0.003
   255   8 O        2.197    24.130    -0.003
   256   8 O        2.665     0.906    -0.000
   257   6 C        2.878     0.508    -0.000
   258   6 C        3.288     0.284    -0.000
   259   8 O        3.021     4.105    -0.001
   260   6 C        3.295     0.364    -0.000
   261   8 O        2.639     4.806    -0.001
   262   6 C        3.273     0.738    -0.000
   263   6 C        3.692     0.098    -0.000
   264   7 N        3.697     0.001    -0.000
   265   6 C        3.733     0.084    -0.000
   266   8 O        2.822     3.885    -0.001
   267   7 N        3.757     0.005    -0.000
   268   6 C        4.005     0.000    -0.000
   269   7 N        2.809     0.237    -0.000
   270   6 C        3.422     1.007    -0.000
   271   6 C        3.403     1.179    -0.000
   272   1 H        2.188    10.966    -0.015
   273   1 H        2.130    14.200    -0.019
   274   1 H        2.196    16.203    -0.022
   275   1 H        2.229    10.124    -0.014
   276   1 H        2.354     7.625    -0.010
   277   1 H        2.304     5.012    -0.007
   278   1 H        2.555     2.740    -0.004
   279   1 H        2.713     1.699    -0.002
   280   1 H        2.328    10.136    -0.014
   281   1 H        2.210    13.189    -0.018
   282   1 H        2.353     6.991    -0.009
   283  15 P        3.176     9.997    -0.001
   284   8 O        2.175    25.178    -0.003
   285   8 O        2.195    23.273    -0.003
   286   8 O        2.611     2.920    -0.000
   287   6 C        2.885     0.447    -0.000
   288   6 C        3.404     0.122    -0.000
   289   8 O        3.133     0.297    -0.000
   290   6 C        3.344     0.310    -0.000
   291   8 O        2.794     0.914    -0.000
   292   6 C        3.300     0.873    -0.000
   293   6 C        3.834     0.001    -0.000
   294   7 N        4.106     0.000    -0.000
   295   6 C        3.530     1.456    -0.000
   296   7 N        3.135     0.526    -0.000
   297   6 C        4.680     0.043    -0.000
   298   6 C        3.778     0.086    -0.000
   299   8 O        2.636     8.350    -0.001
   300   7 N        3.865     0.000    -0.000
   301   6 C        4.440     0.000    -0.000
   302   7 N        2.972     0.568    -0.000
   303   7 N        3.634     0.891    -0.000
   304   6 C        4.939     0.000     0.000
   305   8 O        2.495    13.808    -0.002
   306   1 H        2.209    10.574    -0.014
   307   1 H        2.158    10.511    -0.014
   308   1 H        2.343     7.660    -0.010
   309   1 H        2.218    10.802    -0.014
   310   1 H        2.294    10.711    -0.014
   311   1 H        2.443     1.607    -0.002
   312   1 H        2.731     2.229    -0.003
   313   1 H        2.282    14.741    -0.020
   314   1 H        3.549     0.000    -0.000
   315   1 H        2.855     0.922    -0.001
   316   1 H        2.407    12.809    -0.017
   317  15 P        3.199     8.607    -0.001
   318   8 O        2.233    18.387    -0.003
   319   8 O        2.176    26.376    -0.004
   320   8 O        2.546     5.340    -0.001
   321   6 C        2.828     0.754    -0.000
   322   6 C        3.307     0.167    -0.000
   323   8 O        3.039     2.147    -0.000
   324   6 C        3.284     0.132    -0.000
   325   8 O        2.634     4.336    -0.001
   326   6 C        3.260     0.442    -0.000
   327   6 C        3.677     0.062    -0.000
   328   7 N        3.716     0.001    -0.000
   329   6 C        3.762     0.000    -0.000
   330   8 O        2.796     3.788    -0.001
   331   7 N        3.756     0.000     0.000
   332   6 C        3.905     0.145    -0.000
   333   7 N        2.749     0.482    -0.000
   334   6 C        3.365     2.340    -0.000
   335   6 C        3.399     1.406    -0.000
   336   1 H        2.187    11.056    -0.015
   337   1 H        2.102    18.567    -0.025
   338   1 H        2.271    13.281    -0.018
   339   1 H        2.241     8.639    -0.012
   340   1 H        2.323     9.850    -0.013
   341   1 H        2.339     1.994    -0.003
   342   1 H        2.506     4.438    -0.006
   343   1 H        2.687     1.624    -0.002
   344   1 H        2.263    15.600    -0.021
   345   1 H        2.183    14.217    -0.019
   346   1 H        2.350     7.187    -0.010
   347  15 P        3.162     9.910    -0.001
   348   8 O        2.170    25.161    -0.003
   349   8 O        2.193    23.533    -0.003
   350   8 O        2.604     1.778    -0.000
   351   6 C        2.829     0.475    -0.000
   352   6 C        3.187     0.238    -0.000
   353   8 O        2.933     3.528    -0.000
   354   6 C        3.106     0.393    -0.000
   355   8 O        2.284    14.586    -0.002
   356   6 C        3.070     1.273    -0.000
   357   6 C        3.436     0.294    -0.000
   358   7 N        3.623     0.440    -0.000
   359   6 C        3.186     4.495    -0.000
   360   7 N        2.841    11.447    -0.003
   361   6 C        3.904     3.281    -0.000
   362   6 C        3.368     4.226    -0.000
   363   8 O        2.509    13.332    -0.002
   364   7 N        3.315     1.911    -0.001
   365   6 C        3.667     4.056    -0.000
   366   7 N        2.686     3.845    -0.001
   367   7 N        3.078     6.473    -0.002
   368   6 C        4.045     3.289    -0.000
   369   1 H        2.161    11.870    -0.016
   370   1 H        2.115    14.424    -0.019
   371   1 H        2.178    15.334    -0.020
   372   1 H        2.169    12.781    -0.017
   373   1 H        1.942    20.134    -0.027
   374   1 H        2.251    10.180    -0.014
   375   1 H        2.152    16.086    -0.021
   376   1 H        2.374    10.897    -0.015
   377   1 H        2.271     8.309    -0.011
   378   1 H        3.050     2.273    -0.003
   379   1 H        2.564     3.314    -0.004
   380   1 H        2.225    20.166    -0.027
   381   8 O        2.284     6.500    -0.001
   382   6 C        2.723     0.869    -0.000
   383   6 C        3.121     0.305    -0.000
   384   8 O        2.784     9.889    -0.001
   385   6 C        3.204     0.276    -0.000
   386   8 O        2.589     5.029    -0.001
   387   6 C        3.203     0.528    -0.000
   388   6 C        3.428     0.398    -0.000
   389   7 N        3.374     0.628    -0.000
   390   6 C        3.355     4.226    -0.000
   391   8 O        2.630     7.626    -0.001
   392   7 N        3.245     2.208    -0.001
   393   6 C        3.394     4.008    -0.000
   394   7 N        2.558     4.580    -0.001
   395   6 C        3.046     7.883    -0.000
   396   6 C        3.094     5.822    -0.000
   397   1 H        2.059    18.555    -0.025
   398   1 H        2.071    17.156    -0.023
   399   1 H        2.143    16.191    -0.022
   400   1 H        2.221     8.533    -0.011
   401   1 H        2.311     8.918    -0.012
   402   1 H        2.349     1.214    -0.002
   403   1 H        2.368     7.091    -0.009
   404   1 H        2.467     2.273    -0.003
   405   1 H        2.151    20.093    -0.027
   406   1 H        2.080    18.399    -0.025
   407   1 H        2.218     7.658    -0.010
   408   1 H        1.919    23.013    -0.031
   409  15 P        3.148    10.031    -0.001
   410   8 O        2.167    24.886    -0.003
   411   8 O        2.185    24.106    -0.003
   412   8 O        2.607     1.807    -0.000
   413   6 C        2.831     0.471    -0.000
   414   6 C        3.248     0.185    -0.000
   415   8 O        2.967     3.921    -0.001
   416   6 C        3.272     0.170    -0.000
   417   8 O        2.636     4.030    -0.001
   418   6 C        3.282     0.383    -0.000
   419   6 C        3.613     0.368    -0.000
   420   7 N        3.877     0.007    -0.000
   421   6 C        3.307     1.491    -0.000
   422   7 N        2.962     8.160    -0.002
   423   6 C        4.376     0.020    -0.000
   424   6 C        3.779     0.051    -0.000
   425   8 O        2.729     5.057    -0.001
   426   7 N        3.780     0.000    -0.000
   427   6 C        4.120     0.001    -0.000
   428   7 N        2.816     0.952    -0.000
   429   7 N        3.346     2.222    -0.001
   430   6 C        4.541     0.027    -0.000
   431   1 H        2.150    11.797    -0.016
   432   1 H        2.120    14.409    -0.019
   433   1 H        2.208    14.655    -0.020
   434   1 H        2.237     9.361    -0.013
   435   1 H        2.334     8.548    -0.011
   436   1 H        2.390     0.922    -0.001
   437   1 H        2.478     5.426    -0.007
   438   1 H        2.312     8.008    -0.011
   439   1 H        3.543     0.000    -0.000
   440   1 H        2.686     2.651    -0.004
   441   1 H        2.292    18.002    -0.024
   442  15 P        3.176     9.815    -0.001
   443   8 O        2.170    25.464    -0.003
   444   8 O        2.203    22.801    -0.003
   445   8 O        2.626     1.747    -0.000
   446   6 C        2.859     0.442    -0.000
   447   6 C        3.269     0.230    -0.000
   448   8 O        3.034     2.314    -0.000
   449   6 C        3.272     0.230    -0.000
   450   8 O        2.634     4.488    -0.001
   451   6 C        3.258     0.586    -0.000
   452   6 C        3.668     0.025    -0.000
   453   7 N        3.711    -0.009     0.000
   454   6 C        3.766     0.002    -0.000
   455   8 O        2.876     2.760    -0.000
   456   7 N        3.697     0.000    -0.000
   457   6 C        3.772     1.251    -0.000
   458   7 N        2.680     2.792    -0.001
   459   6 C        3.291     4.203    -0.000
   460   6 C        3.346     2.857    -0.000
   461   1 H        2.178    10.911    -0.015
   462   1 H        2.129    13.946    -0.019
   463   1 H        2.207    15.468    -0.021
   464   1 H        2.228     9.651    -0.013
   465   1 H        2.334     9.878    -0.013
   466   1 H        2.326     2.804    -0.004
   467   1 H        2.492     4.038    -0.005
   468   1 H        2.582     3.188    -0.004
   469   1 H        2.221    18.275    -0.024
   470   1 H        2.162    15.015    -0.020
   471   1 H        2.336     5.523    -0.007
   472  15 P        3.176     9.875    -0.001
   473   8 O        2.175    24.949    -0.003
   474   8 O        2.199    23.259    -0.003
   475   8 O        2.631     1.414    -0.000
   476   6 C        2.862     0.469    -0.000
   477   6 C        3.287     0.192    -0.000
   478   8 O        3.005     3.812    -0.001
   479   6 C        3.313     0.150    -0.000
   480   8 O        2.656     4.027    -0.001
   481   6 C        3.314     0.369    -0.000
   482   6 C        3.674     0.142    -0.000
   483   7 N        3.963     0.001    -0.000
   484   6 C        3.326     2.969    -0.000
   485   7 N        2.985     8.846    -0.003
   486   6 C        4.531     0.024    -0.000
   487   6 C        3.944     0.017    -0.000
   488   8 O        2.759     5.300    -0.001
   489   7 N        3.975     0.000    -0.000
   490   6 C        4.342     0.038    -0.000
   491   7 N        2.897     0.648    -0.000
   492   7 N        3.453     2.312    -0.001
   493   6 C        4.739     0.002    -0.000
   494   1 H        2.172    11.620    -0.016
   495   1 H        2.140    13.605    -0.018
   496   1 H        2.224    14.896    -0.020
   497   1 H        2.258     8.791    -0.012
   498   1 H        2.339    10.042    -0.013
   499   1 H        2.434     0.635    -0.001
   500   1 H        2.502     5.694    -0.008
   501   1 H        2.309     8.279    -0.011
   502   1 H        3.640     0.001    -0.000
   503   1 H        2.769     1.371    -0.002
   504   1 H        2.343    16.491    -0.022
   505  15 P        3.199     9.479    -0.001
   506   8 O        2.178    25.114    -0.003
   507   8 O        2.216    21.853    -0.003
   508   8 O        2.669     0.628    -0.000
   509   6 C        2.883     0.469    -0.000
   510   6 C        3.273     0.282    -0.000
   511   8 O        2.990     4.795    -0.001
   512   6 C        3.298     0.249    -0.000
   513   8 O        2.640     4.527    -0.001
   514   6 C        3.309     0.476    -0.000
   515   6 C        3.688     0.107    -0.000
   516   7 N        4.026     0.018    -0.000
   517   6 C        3.368     2.586    -0.000
   518   7 N        3.014     8.521    -0.003
   519   6 C        4.852     0.001    -0.000
   520   6 C        4.499     0.000     0.000
   521   7 N        2.884     0.287    -0.000
   522   7 N        3.901     0.002    -0.000
   523   6 C        3.557     0.363    -0.000
   524   7 N        3.232     4.495    -0.001
   525   6 C        4.793     0.021    -0.000
   526   1 H        2.179    11.516    -0.015
   527   1 H        2.147    13.120    -0.018
   528   1 H        2.197    16.024    -0.021
   529   1 H        2.248     9.469    -0.013
   530   1 H        2.368     8.828    -0.012
   531   1 H        2.394     1.565    -0.002
   532   1 H        2.520     4.589    -0.006
   533   1 H        2.354     6.670    -0.009
   534   1 H        2.771     1.285    -0.002
   535   1 H        2.367    12.227    -0.016
   536   1 H        2.463     7.286    -0.010
   537  15 P        3.177    10.235    -0.001
   538   8 O        2.172    25.255    -0.003
   539   8 O        2.199    23.576    -0.003
   540   8 O        2.639     1.997    -0.000
   541   6 C        2.871     0.491    -0.000
   542   6 C        3.299     0.172    -0.000
   543   8 O        3.065     3.071    -0.000
   544   6 C        3.308     0.127    -0.000
   545   8 O        2.647     4.268    -0.001
   546   6 C        3.326     0.346    -0.000
   547   6 C        3.698     0.322    -0.000
   548   7 N        4.074     0.001    -0.000
   549   6 C        3.432     0.380    -0.000
   550   7 N        3.064     6.897    -0.002
   551   6 C        4.891     0.009    -0.000
   552   6 C        4.432     0.000    -0.000
   553   7 N        2.876     0.171    -0.000
   554   7 N        3.822     0.001    -0.000
   555   6 C        3.527     0.193    -0.000
   556   7 N        3.198     4.884    -0.001
   557   6 C        4.775     0.060    -0.000
   558   1 H        2.188    11.135    -0.015
   559   1 H        2.133    14.396    -0.019
   560   1 H        2.226    14.884    -0.020
   561   1 H        2.257     8.636    -0.012
   562   1 H        2.366     6.644    -0.009
   563   1 H        2.420     0.977    -0.001
   564   1 H        2.494     6.682    -0.009
   565   1 H        2.362     6.885    -0.009
   566   1 H        2.802     0.938    -0.001
   567   1 H        2.351    13.388    -0.018
   568   1 H        2.474     5.757    -0.008
   569  15 P        3.176    10.386    -0.001
   570   8 O        2.172    25.593    -0.004
   571   8 O        2.197    23.938    -0.003
   572   8 O        2.633     2.715    -0.000
   573   6 C        2.871     0.475    -0.000
   574   6 C        3.327     0.207    -0.000
   575   8 O        3.102     2.019    -0.000
   576   6 C        3.331     0.068    -0.000
   577   8 O        2.649     4.330    -0.001
   578   6 C        3.398     0.052    -0.000
   579   6 C        3.756     0.183    -0.000
   580   7 N        3.860     0.000    -0.000
   581   6 C        3.788     0.002    -0.000
   582   8 O        2.650     6.158    -0.001
   583   7 N        3.519     0.000    -0.000
   584   6 C        3.672     0.004    -0.000
   585   8 O        2.673     7.197    -0.001
   586   6 C        3.884     0.000     0.000
   587   6 C        2.777     2.276    -0.000
   588   6 C        3.605     0.000    -0.000
   589   1 H        2.193    10.855    -0.015
   590   1 H        2.131    14.711    -0.020
   591   1 H        2.249    13.941    -0.019
   592   1 H        2.272     8.590    -0.011
   593   1 H        2.435     3.945    -0.005
   594   1 H        2.509     0.043    -0.000
   595   1 H        2.499     7.065    -0.009
   596   1 H        3.318     0.007    -0.000
   597   1 H        2.143    15.637    -0.021
   598   1 H        2.229     9.438    -0.013
   599   1 H        2.182    11.998    -0.016
   600   1 H        2.434     3.446    -0.005
   601  15 P        3.186    10.316    -0.001
   602   8 O        2.173    25.643    -0.004
   603   8 O        2.205    23.539    -0.003
   604   8 O        2.644     2.404    -0.000
   605   6 C        2.877     0.492    -0.000
   606   6 C        3.308     0.188    -0.000
   607   8 O        3.082     2.571    -0.000
   608   6 C        3.317     0.129    -0.000
   609   8 O        2.646     4.569    -0.001
   610   6 C        3.382     0.179    -0.000
   611   6 C        3.719     0.199    -0.000
   612   7 N        3.824     0.000    -0.000
   613   6 C        3.743     0.009    -0.000
   614   8 O        2.661     5.678    -0.001
   615   7 N        3.510     0.003    -0.000
   616   6 C        3.725     0.002    -0.000
   617   8 O        2.691     5.214    -0.001
   618   6 C        3.945     0.009    -0.000
   619   6 C        2.811     2.494    -0.000
   620   6 C        3.608     0.083    -0.000
   621   1 H        2.196    10.853    -0.015
   622   1 H        2.133    14.555    -0.019
   623   1 H        2.232    14.898    -0.020
   624   1 H        2.259     8.480    -0.011
   625   1 H        2.421     5.436    -0.007
   626   1 H        2.504     0.019    -0.000
   627   1 H        2.470     7.592    -0.010
   628   1 H        3.369     0.007    -0.000
   629   1 H        2.202    12.056    -0.016
   630   1 H        2.185    12.410    -0.017
   631   1 H        2.273     5.158    -0.007
   632   1 H        2.455     3.262    -0.004
   633  15 P        3.179    10.219    -0.001
   634   8 O        2.174    25.349    -0.003
   635   8 O        2.197    24.208    -0.003
   636   8 O        2.666     0.931    -0.000
   637   6 C        2.878     0.481    -0.000
   638   6 C        3.288     0.253    -0.000
   639   8 O        3.020     4.193    -0.001
   640   6 C        3.295     0.364    -0.000
   641   8 O        2.639     4.804    -0.001
   642   6 C        3.273     0.739    -0.000
   643   6 C        3.692     0.125    -0.000
   644   7 N        3.694     0.001    -0.000
   645   6 C        3.735     0.021    -0.000
   646   8 O        2.831     3.623    -0.000
   647   7 N        3.751     0.005    -0.000
   648   6 C        3.991     0.001    -0.000
   649   7 N        2.798     0.301    -0.000
   650   6 C        3.416     1.071    -0.000
   651   6 C        3.399     1.270    -0.000
   652   1 H        2.187    11.023    -0.015
   653   1 H        2.130    14.220    -0.019
   654   1 H        2.196    16.241    -0.022
   655   1 H        2.229    10.234    -0.014
   656   1 H        2.355     7.560    -0.010
   657   1 H        2.302     5.101    -0.007
   658   1 H        2.556     2.835    -0.004
   659   1 H        2.692     1.885    -0.003
   660   1 H        2.321    10.331    -0.014
   661   1 H        2.208    13.158    -0.018
   662   1 H        2.353     6.924    -0.009
   663  15 P        3.177     9.767    -0.001
   664   8 O        2.176    25.162    -0.003
   665   8 O        2.196    23.198    -0.003
   666   8 O        2.610     2.939    -0.000
   667   6 C        2.883     0.451    -0.000
   668   6 C        3.400     0.112    -0.000
   669   8 O        3.129     0.222    -0.000
   670   6 C        3.344     0.286    -0.000
   671   8 O        2.794     0.847    -0.000
   672   6 C        3.298     0.886    -0.000
   673   6 C        3.835     0.000    -0.000
   674   7 N        4.107     0.000    -0.000
   675   6 C        3.533     1.420    -0.000
   676   7 N        3.135     0.521    -0.000
   677   6 C        4.671     0.052    -0.000
   678   6 C        3.768     0.089    -0.000
   679   8 O        2.629     8.500    -0.001
   680   7 N        3.850     0.000     0.000
   681   6 C        4.428     0.000     0.000
   682   7 N        2.966     0.521    -0.000
   683   7 N        3.635     0.834    -0.000
   684   6 C        4.940     0.000     0.000
   685   8 O        2.500    13.540    -0.002
   686   1 H        2.206    10.689    -0.014
   687   1 H        2.157    10.671    -0.014
   688   1 H        2.338     7.661    -0.010
   689   1 H        2.218    10.723    -0.014
   690   1 H        2.293    10.770    -0.014
   691   1 H        2.438     1.726    -0.002
   692   1 H        2.732     2.331    -0.003
   693   1 H        2.285    14.420    -0.019
   694   1 H        3.526     0.000     0.000
   695   1 H        2.834     1.009    -0.001
   696   1 H        2.403    12.654    -0.017
   697  15 P        3.199     8.540    -0.001
   698   8 O        2.231    18.709    -0.003
   699   8 O        2.177    26.216    -0.004
   700   8 O        2.547     5.241    -0.001
   701   6 C        2.827     0.725    -0.000
   702   6 C        3.303     0.170    -0.000
   703   8 O        3.036     2.166    -0.000
   704   6 C        3.282     0.090    -0.000
   705   8 O        2.633     4.350    -0.001
   706   6 C        3.257     0.448    -0.000
   707   6 C        3.672     0.048    -0.000
   708   7 N        3.710     0.000    -0.000
   709   6 C        3.756     0.002    -0.000
   710   8 O        2.792     3.895    -0.001
   711   7 N        3.750     0.000     0.000
   712   6 C        3.900     0.216    -0.000
   713   7 N        2.748     0.513    -0.000
   714   6 C        3.364     2.587    -0.000
   715   6 C        3.395     1.536    -0.000
   716   1 H        2.187    11.135    -0.015
   717   1 H        2.101    18.530    -0.025
   718   1 H        2.267    13.391    -0.018
   719   1 H        2.240     8.655    -0.012
   720   1 H        2.321     9.813    -0.013
   721   1 H        2.334     2.127    -0.003
   722   1 H        2.503     4.437    -0.006
   723   1 H        2.684     1.587    -0.002
   724   1 H        2.264    15.674    -0.021
   725   1 H        2.185    13.931    -0.019
   726   1 H        2.352     6.933    -0.009
   727  15 P        3.163     9.949    -0.001
   728   8 O        2.170    25.063    -0.003
   729   8 O        2.194    23.420    -0.003
   730   8 O        2.604     1.595    -0.000
   731   6 C        2.828     0.475    -0.000
   732   6 C        3.183     0.239    -0.000
   733   8 O        2.925     3.875    -0.001
   734   6 C        3.105     0.361    -0.000
   735   8 O        2.284    14.531    -0.002
   736   6 C        3.070     1.233    -0.000
   737   6 C        3.432     0.344    -0.000
   738   7 N        3.618     0.456    -0.000
   739   6 C        3.185     4.489    -0.000
   740   7 N        2.843    11.360    -0.003
   741   6 C        3.903     3.250    -0.000
   742   6 C        3.371     4.209    -0.000
   743   8 O        2.513    12.941    -0.002
   744   7 N        3.317     1.881    -0.001
   745   6 C        3.662     4.019    -0.000
   746   7 N        2.681     3.857    -0.001
   747   7 N        3.074     6.689    -0.002
   748   6 C        4.040     3.327    -0.000
   749   1 H        2.158    12.008    -0.016
   750   1 H        2.115    14.284    -0.019
   751   1 H        2.175    15.398    -0.021
   752   1 H        2.169    12.756    -0.017
   753   1 H        1.942    20.096    -0.027
   754   1 H        2.253    10.066    -0.013
   755   1 H        2.152    16.064    -0.021
   756   1 H        2.370    10.974    -0.015
   757   1 H        2.273     8.094    -0.011
   758   1 H        3.051     2.276    -0.003
   759   1 H        2.557     3.495    -0.005
   760   1 H        2.221    20.444    -0.027

 total SASA / Å² :     4584.146

     #   Z          covCN         q      C6AA      α(0)
     1   8 O        1.653    -0.419    21.220     6.218
     2   6 C        3.672     0.046    20.029     6.414
     3   6 C        3.777     0.089    19.125     6.231
     4   8 O        1.699    -0.254    18.211     5.762
     5   6 C        3.918     0.117    18.620     6.133
     6   8 O        1.656    -0.327    19.485     5.959
     7   6 C        3.818    -0.096    22.319     6.723
     8   6 C        3.717     0.159    18.146     6.085
     9   7 N        2.737    -0.022    21.680     6.915
    10   6 C        2.753     0.326    21.461     7.586
    11   8 O        0.862    -0.460    22.916     6.418
    12   7 N        1.866    -0.286    28.261     7.880
    13   6 C        2.882     0.196    23.832     8.003
    14   7 N        2.674    -0.174    24.773     7.392
    15   6 C        2.911    -0.056    29.388     8.889
    16   6 C        2.861     0.052    26.838     8.491
    17   1 H        0.925     0.112     1.677     2.025
    18   1 H        0.924     0.084     1.940     2.178
    19   1 H        0.924     0.096     1.822     2.111
    20   1 H        0.924     0.083     1.945     2.181
    21   1 H        0.924     0.127     1.560     1.953
    22   1 H        0.925     0.097     1.815     2.107
    23   1 H        0.925     0.123     1.593     1.974
    24   1 H        0.860     0.276     0.790     1.392
    25   1 H        0.860     0.281     0.772     1.377
    26   1 H        0.926     0.165     1.297     1.781
    27   1 H        0.926     0.152     1.379     1.837
    28   1 H        0.805     0.378     0.527     1.140
    29  15 P        3.613     0.593   136.503    20.987
    30   8 O        0.808    -0.532    24.540     6.640
    31   8 O        0.808    -0.515    24.140     6.586
    32   8 O        1.656    -0.315    19.277     5.927
    33   6 C        3.877     0.076    19.275     6.242
    34   6 C        3.798     0.086    19.156     6.232
    35   8 O        1.702    -0.271    18.497     5.807
    36   6 C        3.902     0.118    18.604     6.131
    37   8 O        1.656    -0.338    19.687     5.990
    38   6 C        3.822    -0.100    22.395     6.734
    39   6 C        3.732     0.148    18.276     6.102
    40   7 N        2.821    -0.017    21.575     6.899
    41   6 C        3.147     0.103    25.485     8.259
    42   7 N        1.869    -0.153    25.105     7.427
    43   6 C        3.203     0.012    27.161     8.490
    44   6 C        2.773     0.268    22.472     7.764
    45   8 O        0.860    -0.359    20.877     6.126
    46   7 N        2.717    -0.161    24.472     7.347
    47   6 C        2.835     0.218    23.412     7.929
    48   7 N        2.667    -0.185    25.005     7.427
    49   7 N        1.844    -0.222    26.694     7.657
    50   6 C        3.087     0.115    25.367     8.256
    51   1 H        0.924     0.086     1.920     2.167
    52   1 H        0.925     0.053     2.285     2.364
    53   1 H        0.924     0.092     1.861     2.133
    54   1 H        0.924     0.053     2.284     2.363
    55   1 H        0.924     0.104     1.748     2.068
    56   1 H        0.925     0.097     1.811     2.105
    57   1 H        0.924     0.119     1.624     1.993
    58   1 H        0.926     0.126     1.563     1.955
    59   1 H        0.860     0.260     0.845     1.440
    60   1 H        0.860     0.281     0.772     1.376
    61   1 H        0.860     0.295     0.728     1.336
    62  15 P        3.610     0.594   136.463    20.984
    63   8 O        0.808    -0.529    24.452     6.629
    64   8 O        0.808    -0.509    24.001     6.567
    65   8 O        1.656    -0.305    19.099     5.900
    66   6 C        3.889     0.071    19.350     6.254
    67   6 C        3.794     0.082    19.229     6.244
    68   8 O        1.701    -0.250    18.146     5.751
    69   6 C        3.921     0.116    18.637     6.135
    70   8 O        1.657    -0.321    19.385     5.944
    71   6 C        3.818    -0.095    22.294     6.720
    72   6 C        3.740     0.151    18.223     6.091
    73   7 N        2.740    -0.032    21.868     6.945
    74   6 C        2.756     0.315    21.646     7.619
    75   8 O        0.862    -0.457    22.850     6.409
    76   7 N        1.869    -0.309    28.863     7.964
    77   6 C        2.883     0.181    24.121     8.052
    78   7 N        2.675    -0.171    24.700     7.381
    79   6 C        2.911    -0.072    29.796     8.951
    80   6 C        2.863     0.047    26.942     8.508
    81   1 H        0.924     0.091     1.871     2.139
    82   1 H        0.925     0.060     2.204     2.322
    83   1 H        0.924     0.113     1.672     2.022
    84   1 H        0.924     0.060     2.197     2.318
    85   1 H        0.925     0.107     1.720     2.051
    86   1 H        0.925     0.100     1.781     2.087
    87   1 H        0.924     0.127     1.556     1.951
    88   1 H        0.860     0.289     0.747     1.353
    89   1 H        0.860     0.286     0.756     1.362
    90   1 H        0.926     0.155     1.356     1.821
    91   1 H        0.926     0.114     1.662     2.016
    92  15 P        3.616     0.598   136.307    20.972
    93   8 O        0.808    -0.527    24.411     6.623
    94   8 O        0.808    -0.511    24.050     6.574
    95   8 O        1.656    -0.311    19.196     5.915
    96   6 C        3.880     0.070    19.368     6.257
    97   6 C        3.799     0.083    19.209     6.240
    98   8 O        1.702    -0.259    18.291     5.774
    99   6 C        3.919     0.117    18.615     6.132
   100   8 O        1.657    -0.335    19.630     5.981
   101   6 C        3.822    -0.100    22.381     6.732
   102   6 C        3.738     0.147    18.292     6.103
   103   7 N        2.822    -0.013    21.502     6.887
   104   6 C        3.145     0.106    25.427     8.250
   105   7 N        1.870    -0.134    24.691     7.366
   106   6 C        3.200     0.004    27.372     8.526
   107   6 C        2.772     0.260    22.613     7.788
   108   8 O        0.860    -0.337    20.463     6.065
   109   7 N        2.716    -0.170    24.687     7.379
   110   6 C        2.837     0.219    23.392     7.926
   111   7 N        2.668    -0.202    25.393     7.484
   112   7 N        1.846    -0.245    27.251     7.737
   113   6 C        3.090     0.111    25.458     8.270
   114   1 H        0.924     0.099     1.790     2.092
   115   1 H        0.924     0.057     2.230     2.335
   116   1 H        0.924     0.096     1.822     2.111
   117   1 H        0.925     0.056     2.242     2.342
   118   1 H        0.924     0.112     1.683     2.029
   119   1 H        0.925     0.092     1.864     2.135
   120   1 H        0.924     0.109     1.708     2.044
   121   1 H        0.926     0.130     1.536     1.938
   122   1 H        0.860     0.257     0.855     1.449
   123   1 H        0.860     0.265     0.829     1.426
   124   1 H        0.860     0.268     0.816     1.415
   125  15 P        3.621     0.594   136.472    20.985
   126   8 O        0.808    -0.534    24.587     6.647
   127   8 O        0.808    -0.503    23.878     6.550
   128   8 O        1.656    -0.312    19.216     5.918
   129   6 C        3.888     0.073    19.322     6.249
   130   6 C        3.783     0.088    19.147     6.233
   131   8 O        1.700    -0.274    18.540     5.813
   132   6 C        3.913     0.123    18.530     6.118
   133   8 O        1.657    -0.342    19.766     6.002
   134   6 C        3.819    -0.095    22.287     6.719
   135   6 C        3.717     0.159    18.147     6.085
   136   7 N        2.829    -0.035    21.925     6.954
   137   6 C        3.159     0.104    25.403     8.240
   138   7 N        1.866    -0.153    25.107     7.427
   139   6 C        3.224     0.003    27.192     8.474
   140   6 C        2.903     0.149    24.767     8.160
   141   7 N        2.668    -0.181    24.913     7.413
   142   7 N        1.864    -0.238    27.076     7.713
   143   6 C        2.917     0.134    25.070     8.211
   144   7 N        1.827    -0.193    25.994     7.555
   145   6 C        3.127     0.120    25.191     8.218
   146   1 H        0.924     0.088     1.898     2.155
   147   1 H        0.925     0.052     2.301     2.372
   148   1 H        0.924     0.087     1.910     2.161
   149   1 H        0.924     0.052     2.290     2.367
   150   1 H        0.925     0.104     1.745     2.066
   151   1 H        0.925     0.088     1.899     2.155
   152   1 H        0.924     0.096     1.824     2.112
   153   1 H        0.926     0.107     1.723     2.052
   154   1 H        0.860     0.289     0.745     1.352
   155   1 H        0.860     0.293     0.736     1.343
   156   1 H        0.926     0.101     1.773     2.082
   157  15 P        3.617     0.575   137.159    21.038
   158   8 O        0.808    -0.540    24.727     6.666
   159   8 O        0.808    -0.514    24.129     6.585
   160   8 O        1.656    -0.318    19.329     5.935
   161   6 C        3.887     0.082    19.174     6.225
   162   6 C        3.794     0.094    19.032     6.212
   163   8 O        1.702    -0.303    19.043     5.892
   164   6 C        3.910     0.122    18.541     6.120
   165   8 O        1.657    -0.352    19.940     6.028
   166   6 C        3.818    -0.097    22.343     6.727
   167   6 C        3.730     0.164    18.046     6.064
   168   7 N        2.831    -0.041    22.026     6.970
   169   6 C        3.157     0.098    25.541     8.263
   170   7 N        1.867    -0.163    25.317     7.458
   171   6 C        3.223     0.000    27.266     8.487
   172   6 C        2.904     0.151    24.727     8.153
   173   7 N        2.666    -0.185    25.006     7.427
   174   7 N        1.861    -0.246    27.281     7.742
   175   6 C        2.917     0.135    25.047     8.207
   176   7 N        1.827    -0.197    26.107     7.571
   177   6 C        3.123     0.120    25.192     8.219
   178   1 H        0.924     0.067     2.118     2.276
   179   1 H        0.924     0.041     2.433     2.439
   180   1 H        0.924     0.060     2.195     2.317
   181   1 H        0.924     0.051     2.304     2.374
   182   1 H        0.924     0.103     1.761     2.075
   183   1 H        0.925     0.094     1.843     2.123
   184   1 H        0.924     0.083     1.953     2.185
   185   1 H        0.926     0.105     1.743     2.064
   186   1 H        0.860     0.286     0.755     1.361
   187   1 H        0.860     0.294     0.730     1.339
   188   1 H        0.926     0.097     1.813     2.106
   189  15 P        3.619     0.570   137.324    21.051
   190   8 O        0.808    -0.544    24.815     6.678
   191   8 O        0.808    -0.512    24.074     6.577
   192   8 O        1.656    -0.311    19.211     5.917
   193   6 C        3.890     0.082    19.166     6.224
   194   6 C        3.805     0.094    19.023     6.209
   195   8 O        1.702    -0.296    18.926     5.874
   196   6 C        3.905     0.120    18.574     6.126
   197   8 O        1.657    -0.351    19.928     6.026
   198   6 C        3.818    -0.102    22.433     6.741
   199   6 C        3.744     0.159    18.100     6.069
   200   7 N        2.737    -0.040    22.010     6.968
   201   6 C        2.700     0.311    21.716     7.627
   202   8 O        0.859    -0.431    22.303     6.332
   203   7 N        2.697    -0.170    24.687     7.379
   204   6 C        2.761     0.262    22.583     7.782
   205   8 O        0.859    -0.331    20.357     6.049
   206   6 C        2.950    -0.007    28.196     8.709
   207   6 C        3.755    -0.158    23.626     6.931
   208   6 C        2.846     0.028    27.379     8.576
   209   1 H        0.924     0.063     2.166     2.302
   210   1 H        0.924     0.043     2.413     2.429
   211   1 H        0.924     0.058     2.224     2.332
   212   1 H        0.924     0.063     2.168     2.302
   213   1 H        0.924     0.115     1.654     2.011
   214   1 H        0.925     0.095     1.830     2.116
   215   1 H        0.924     0.090     1.877     2.143
   216   1 H        0.860     0.270     0.811     1.411
   217   1 H        0.924     0.099     1.798     2.097
   218   1 H        0.924     0.202     1.087     1.631
   219   1 H        0.925     0.155     1.359     1.823
   220   1 H        0.926     0.136     1.491     1.910
   221  15 P        3.615     0.567   137.432    21.059
   222   8 O        0.808    -0.549    24.916     6.691
   223   8 O        0.808    -0.509    24.012     6.569
   224   8 O        1.656    -0.313    19.243     5.922
   225   6 C        3.888     0.081    19.183     6.227
   226   6 C        3.791     0.094    19.043     6.215
   227   8 O        1.701    -0.293    18.872     5.865
   228   6 C        3.904     0.121    18.553     6.122
   229   8 O        1.657    -0.345    19.807     6.008
   230   6 C        3.816    -0.094    22.283     6.718
   231   6 C        3.732     0.164    18.042     6.063
   232   7 N        2.738    -0.044    22.094     6.981
   233   6 C        2.701     0.316    21.636     7.613
   234   8 O        0.859    -0.438    22.456     6.353
   235   7 N        2.698    -0.160    24.465     7.346
   236   6 C        2.761     0.255    22.705     7.803
   237   8 O        0.859    -0.330    20.335     6.046
   238   6 C        2.950    -0.024    28.598     8.771
   239   6 C        3.755    -0.160    23.658     6.935
   240   6 C        2.846     0.027    27.398     8.579
   241   1 H        0.924     0.064     2.154     2.295
   242   1 H        0.924     0.041     2.441     2.443
   243   1 H        0.924     0.063     2.163     2.300
   244   1 H        0.924     0.056     2.243     2.342
   245   1 H        0.924     0.102     1.767     2.079
   246   1 H        0.925     0.083     1.948     2.183
   247   1 H        0.924     0.089     1.885     2.147
   248   1 H        0.860     0.269     0.812     1.411
   249   1 H        0.925     0.185     1.177     1.696
   250   1 H        0.925     0.145     1.429     1.869
   251   1 H        0.924     0.096     1.823     2.112
   252   1 H        0.926     0.127     1.558     1.952
   253  15 P        3.596     0.550   138.042    21.105
   254   8 O        0.808    -0.553    25.029     6.706
   255   8 O        0.808    -0.534    24.582     6.646
   256   8 O        1.656    -0.324    19.427     5.950
   257   6 C        3.870     0.082    19.181     6.228
   258   6 C        3.798     0.092    19.059     6.216
   259   8 O        1.701    -0.302    19.035     5.891
   260   6 C        3.918     0.127    18.458     6.106
   261   8 O        1.656    -0.346    19.829     6.011
   262   6 C        3.829    -0.081    22.031     6.679
   263   6 C        3.739     0.176    17.858     6.030
   264   7 N        2.736    -0.066    22.511     7.047
   265   6 C        2.754     0.326    21.455     7.585
   266   8 O        0.863    -0.478    23.307     6.473
   267   7 N        1.870    -0.318    29.095     7.996
   268   6 C        2.883     0.164    24.454     8.107
   269   7 N        2.677    -0.199    25.331     7.475
   270   6 C        2.911    -0.102    30.581     9.068
   271   6 C        2.861     0.046    26.955     8.510
   272   1 H        0.924     0.070     2.086     2.259
   273   1 H        0.924     0.044     2.395     2.420
   274   1 H        0.924     0.072     2.062     2.246
   275   1 H        0.924     0.036     2.508     2.477
   276   1 H        0.925     0.082     1.960     2.189
   277   1 H        0.925     0.084     1.943     2.180
   278   1 H        0.924     0.077     2.008     2.216
   279   1 H        0.860     0.290     0.745     1.352
   280   1 H        0.860     0.273     0.801     1.402
   281   1 H        0.926     0.145     1.428     1.869
   282   1 H        0.926     0.086     1.921     2.168
   283  15 P        3.605     0.552   137.968    21.100
   284   8 O        0.808    -0.551    24.966     6.698
   285   8 O        0.808    -0.536    24.613     6.650
   286   8 O        1.656    -0.322    19.394     5.945
   287   6 C        3.880     0.088    19.075     6.210
   288   6 C        3.824     0.093    19.028     6.207
   289   8 O        1.702    -0.293    18.872     5.865
   290   6 C        3.941     0.121    18.551     6.121
   291   8 O        1.660    -0.300    19.004     5.885
   292   6 C        3.820    -0.097    22.328     6.725
   293   6 C        3.780     0.165    17.977     6.040
   294   7 N        2.813    -0.073    22.656     7.069
   295   6 C        3.108     0.333    21.246     7.552
   296   7 N        2.745    -0.078    22.748     7.084
   297   6 C        3.205    -0.004    27.520     8.545
   298   6 C        2.771     0.269    22.454     7.761
   299   8 O        0.859    -0.323    20.195     6.025
   300   7 N        2.712    -0.156    24.364     7.331
   301   6 C        2.844     0.211    23.532     7.950
   302   7 N        2.667    -0.191    25.138     7.446
   303   7 N        1.851    -0.263    27.693     7.799
   304   6 C        3.128     0.120    25.183     8.216
   305   8 O        0.864    -0.447    22.636     6.379
   306   1 H        0.924     0.065     2.136     2.286
   307   1 H        0.925     0.038     2.472     2.459
   308   1 H        0.924     0.075     2.031     2.229
   309   1 H        0.924     0.038     2.482     2.464
   310   1 H        0.924     0.100     1.781     2.087
   311   1 H        0.926     0.109     1.703     2.041
   312   1 H        0.925     0.109     1.707     2.043
   313   1 H        0.859     0.332     0.626     1.239
   314   1 H        0.859     0.280     0.776     1.380
   315   1 H        0.859     0.289     0.746     1.353
   316   1 H        0.859     0.275     0.791     1.393
   317  15 P        3.604     0.554   137.900    21.095
   318   8 O        0.808    -0.545    24.822     6.679
   319   8 O        0.808    -0.550    24.954     6.696
   320   8 O        1.656    -0.330    19.541     5.967
   321   6 C        3.857     0.071    19.354     6.257
   322   6 C        3.819     0.085    19.155     6.229
   323   8 O        1.703    -0.292    18.862     5.864
   324   6 C        3.919     0.123    18.524     6.117
   325   8 O        1.657    -0.335    19.633     5.982
   326   6 C        3.824    -0.083    22.055     6.683
   327   6 C        3.759     0.158    18.094     6.064
   328   7 N        2.737    -0.049    22.198     6.997
   329   6 C        2.754     0.317    21.610     7.612
   330   8 O        0.862    -0.449    22.685     6.386
   331   7 N        1.866    -0.319    29.133     8.000
   332   6 C        2.883     0.178    24.184     8.062
   333   7 N        2.675    -0.200    25.353     7.478
   334   6 C        2.913    -0.084    30.110     8.998
   335   6 C        2.865     0.046    26.955     8.510
   336   1 H        0.924     0.088     1.903     2.157
   337   1 H        0.925     0.068     2.109     2.271
   338   1 H        0.924     0.085     1.927     2.171
   339   1 H        0.924     0.039     2.464     2.455
   340   1 H        0.925     0.077     2.008     2.216
   341   1 H        0.925     0.083     1.949     2.183
   342   1 H        0.924     0.107     1.725     2.054
   343   1 H        0.860     0.285     0.758     1.364
   344   1 H        0.860     0.263     0.836     1.432
   345   1 H        0.926     0.126     1.563     1.955
   346   1 H        0.926     0.089     1.890     2.150
   347  15 P        3.621     0.575   137.149    21.037
   348   8 O        0.808    -0.535    24.599     6.648
   349   8 O        0.808    -0.540    24.713     6.664
   350   8 O        1.656    -0.310    19.187     5.913
   351   6 C        3.886     0.072    19.332     6.251
   352   6 C        3.802     0.087    19.143     6.229
   353   8 O        1.702    -0.268    18.445     5.799
   354   6 C        3.746     0.102    18.965     6.212
   355   8 O        1.654    -0.454    21.918     6.320
   356   6 C        3.817    -0.100    22.386     6.734
   357   6 C        3.748     0.149    18.239     6.091
   358   7 N        2.822    -0.016    21.559     6.896
   359   6 C        3.137     0.115    25.265     8.227
   360   7 N        1.870    -0.196    26.090     7.571
   361   6 C        3.193     0.028    26.883     8.455
   362   6 C        2.772     0.275    22.351     7.743
   363   8 O        0.860    -0.375    21.183     6.171
   364   7 N        2.715    -0.154    24.332     7.326
   365   6 C        2.838     0.228    23.211     7.895
   366   7 N        2.669    -0.197    25.281     7.468
   367   7 N        1.847    -0.223    26.713     7.660
   368   6 C        3.091     0.128    25.097     8.211
   369   1 H        0.924     0.081     1.970     2.195
   370   1 H        0.925     0.069     2.101     2.267
   371   1 H        0.924     0.118     1.627     1.995
   372   1 H        0.924     0.054     2.268     2.355
   373   1 H        0.805     0.363     0.558     1.173
   374   1 H        0.924     0.077     2.009     2.216
   375   1 H        0.924     0.108     1.714     2.047
   376   1 H        0.924     0.138     1.478     1.901
   377   1 H        0.926     0.095     1.828     2.114
   378   1 H        0.860     0.274     0.797     1.399
   379   1 H        0.860     0.284     0.762     1.368
   380   1 H        0.860     0.299     0.717     1.326
   381   8 O        1.653    -0.420    21.241     6.222
   382   6 C        3.672     0.047    20.026     6.414
   383   6 C        3.778     0.089    19.124     6.230
   384   8 O        1.699    -0.254    18.217     5.763
   385   6 C        3.919     0.117    18.617     6.132
   386   8 O        1.656    -0.327    19.483     5.959
   387   6 C        3.818    -0.096    22.316     6.723
   388   6 C        3.717     0.159    18.142     6.084
   389   7 N        2.737    -0.023    21.687     6.916
   390   6 C        2.753     0.326    21.461     7.586
   391   8 O        0.862    -0.459    22.902     6.416
   392   7 N        1.867    -0.286    28.255     7.879
   393   6 C        2.882     0.196    23.826     8.002
   394   7 N        2.675    -0.175    24.781     7.393
   395   6 C        2.911    -0.056    29.393     8.890
   396   6 C        2.861     0.052    26.833     8.491
   397   1 H        0.925     0.112     1.683     2.029
   398   1 H        0.925     0.083     1.947     2.182
   399   1 H        0.924     0.096     1.825     2.113
   400   1 H        0.924     0.083     1.952     2.185
   401   1 H        0.925     0.126     1.565     1.956
   402   1 H        0.925     0.097     1.816     2.107
   403   1 H        0.925     0.122     1.593     1.974
   404   1 H        0.860     0.275     0.792     1.394
   405   1 H        0.860     0.280     0.775     1.379
   406   1 H        0.926     0.164     1.303     1.785
   407   1 H        0.926     0.151     1.384     1.839
[...]
                           488 O    0.133
   490   6 C    3.954 --   491 N    1.396   492 N    1.295   489 N    1.194
   491   7 N    3.401 --   490 C    1.396   504 H    0.906   503 H    0.874
   492   7 N    2.840 --   490 C    1.295   493 C    1.290
   493   6 C    3.897 --   492 N    1.290   486 C    1.266   483 N    1.169
   494   1 H    0.985 --   476 C    0.958
   495   1 H    0.993 --   476 C    0.966
   496   1 H    0.974 --   477 C    0.938
   497   1 H    0.995 --   479 C    0.961
   498   1 H    0.985 --   481 C    0.961
   499   1 H    0.991 --   481 C    0.960
   500   1 H    0.972 --   482 C    0.937
   501   1 H    0.981 --   484 C    0.946
   502   1 H    0.933 --   489 N    0.856
   503   1 H    0.929 --   491 N    0.874
   504   1 H    0.926 --   491 N    0.906
   505  15 P    5.608 --   507 O    1.685   506 O    1.650   480 O    1.115
                           508 O    1.106
   506   8 O    1.818 --   505 P    1.650
   507   8 O    1.855 --   505 P    1.685
   508   8 O    2.250 --   505 P    1.106   509 C    0.953
   509   6 C    3.911 --   510 C    0.967   527 H    0.966   526 H    0.962
                           508 O    0.953
   510   6 C    3.931 --   511 O    0.978   512 C    0.968   509 C    0.967
                           528 H    0.943
   511   8 O    2.076 --   510 C    0.978   515 C    0.971
   512   6 C    3.922 --   514 C    0.987   510 C    0.968   529 H    0.961
                           513 O    0.930
   513   8 O    2.253 --   537 P    1.111   512 C    0.930
   514   6 C    3.976 --   512 C    0.987   515 C    0.982   531 H    0.962
                           530 H    0.962
   515   6 C    3.923 --   514 C    0.982   511 O    0.971   516 N    0.960
                           532 H    0.943
   516   7 N    3.604 --   517 C    1.216   525 C    1.167   515 C    0.960
   517   6 C    3.916 --   518 N    1.592   516 N    1.216   533 H    0.948
   518   7 N    3.017 --   517 C    1.592   519 C    1.196
   519   6 C    3.882 --   525 C    1.290   518 N    1.196   520 C    1.159
   520   6 C    3.972 --   521 N    1.410   522 N    1.278   519 C    1.159
   521   7 N    3.438 --   520 C    1.410   535 H    0.897   534 H    0.859
   522   7 N    3.030 --   523 C    1.413   520 C    1.278
   523   6 C    3.933 --   524 N    1.436   522 N    1.413   536 H    0.948
   524   7 N    2.953 --   523 C    1.436   525 C    1.255
   525   6 C    3.915 --   519 C    1.290   524 N    1.255   516 N    1.167
   526   1 H    0.990 --   509 C    0.962
   527   1 H    0.993 --   509 C    0.966
   528   1 H    0.979 --   510 C    0.943
   529   1 H    0.995 --   512 C    0.961
   530   1 H    0.987 --   514 C    0.962
   531   1 H    0.992 --   514 C    0.962
   532   1 H    0.978 --   515 C    0.943
   533   1 H    0.987 --   517 C    0.948
   534   1 H    0.915 --   521 N    0.859
   535   1 H    0.915 --   521 N    0.897
   536   1 H    0.988 --   523 C    0.948
   537  15 P    5.637 --   539 O    1.698   538 O    1.665   540 O    1.112
                           513 O    1.111
   538   8 O    1.836 --   537 P    1.665
   539   8 O    1.869 --   537 P    1.698
   540   8 O    2.263 --   537 P    1.112   541 C    0.950
   541   6 C    3.935 --   542 C    0.985   559 H    0.970   558 H    0.966
                           540 O    0.950
   542   6 C    3.955 --   541 C    0.985   543 O    0.975   544 C    0.966
                           560 H    0.954
   543   8 O    2.071 --   542 C    0.975   547 C    0.966
   544   6 C    3.921 --   546 C    0.985   542 C    0.966   561 H    0.963
                           545 O    0.931
   545   8 O    2.257 --   569 P    1.110   544 C    0.931
   546   6 C    3.979 --   544 C    0.985   547 C    0.979   562 H    0.966
                           563 H    0.963
   547   6 C    3.929 --   546 C    0.979   543 O    0.966   548 N    0.965
                           564 H    0.951
   548   7 N    3.604 --   549 C    1.216   557 C    1.163   547 C    0.965
   549   6 C    3.917 --   550 N    1.590   548 N    1.216   565 H    0.950
   550   7 N    3.013 --   549 C    1.590   551 C    1.196
   551   6 C    3.886 --   557 C    1.293   550 N    1.196   552 C    1.158
   552   6 C    3.973 --   553 N    1.415   554 N    1.276   551 C    1.158
   553   7 N    3.434 --   552 C    1.415   567 H    0.896   566 H    0.860
   554   7 N    3.028 --   555 C    1.415   552 C    1.276
   555   6 C    3.932 --   556 N    1.436   554 N    1.415   568 H    0.947
   556   7 N    2.952 --   555 C    1.436   557 C    1.256
   557   6 C    3.914 --   551 C    1.293   556 N    1.256   548 N    1.163
   558   1 H    0.994 --   541 C    0.966
   559   1 H    0.997 --   541 C    0.970
   560   1 H    0.993 --   542 C    0.954
   561   1 H    0.996 --   544 C    0.963
   562   1 H    0.989 --   546 C    0.966
   563   1 H    0.991 --   546 C    0.963
   564   1 H    0.991 --   547 C    0.951
   565   1 H    0.987 --   549 C    0.950
   566   1 H    0.916 --   553 N    0.860
   567   1 H    0.913 --   553 N    0.896
   568   1 H    0.988 --   555 C    0.947
   569  15 P    5.645 --   571 O    1.701   570 O    1.666   572 O    1.117
                           545 O    1.110
   570   8 O    1.837 --   569 P    1.666
   571   8 O    1.875 --   569 P    1.701
   572   8 O    2.272 --   569 P    1.117   573 C    0.950
   573   6 C    3.938 --   574 C    0.988   590 H    0.970   589 H    0.966
                           572 O    0.950
   574   6 C    3.957 --   573 C    0.988   575 O    0.974   576 C    0.964
                           591 H    0.955
   575   8 O    2.071 --   574 C    0.974   579 C    0.969
   576   6 C    3.915 --   578 C    0.981   574 C    0.964   592 H    0.960
                           577 O    0.932
   577   8 O    2.253 --   601 P    1.107   576 C    0.932
   578   6 C    3.958 --   576 C    0.981   579 C    0.965   593 H    0.962
                           594 H    0.961
   579   6 C    3.920 --   575 O    0.969   580 N    0.966   578 C    0.965
                           595 H    0.947
   580   7 N    3.528 --   588 C    1.209   581 C    1.074   579 C    0.966
                           582 O    0.101
   581   6 C    3.954 --   582 O    1.647   583 N    1.163   580 N    1.074
   582   8 O    1.972 --   581 C    1.647   583 N    0.138   580 N    0.101
   583   7 N    3.514 --   581 C    1.163   584 C    1.129   596 H    0.849
                           585 O    0.144   582 O    0.138
   584   6 C    3.948 --   585 O    1.681   583 N    1.129   586 C    1.055
   585   8 O    2.031 --   584 C    1.681   583 N    0.144
   586   6 C    3.839 --   588 C    1.523   587 C    1.068   584 C    1.055
   587   6 C    3.881 --   586 C    1.068   599 H    0.975   598 H    0.900
                           597 H    0.877
   588   6 C    3.854 --   586 C    1.523   580 N    1.209   600 H    0.941
   589   1 H    0.995 --   573 C    0.966
   590   1 H    0.997 --   573 C    0.970
   591   1 H    0.995 --   574 C    0.955
   592   1 H    0.993 --   576 C    0.960
   593   1 H    0.986 --   578 C    0.962
   594   1 H    0.991 --   578 C    0.961
   595   1 H    0.988 --   579 C    0.947
   596   1 H    0.926 --   583 N    0.849
   597   1 H    0.914 --   587 C    0.877
   598   1 H    0.936 --   587 C    0.900
   599   1 H    0.988 --   587 C    0.975
   600   1 H    0.980 --   588 C    0.941
   601  15 P    5.646 --   603 O    1.709   602 O    1.668   604 O    1.111
                           577 O    1.107
   602   8 O    1.840 --   601 P    1.668
   603   8 O    1.886 --   601 P    1.709
   604   8 O    2.267 --   601 P    1.111   605 C    0.952
   605   6 C    3.940 --   606 C    0.986   622 H    0.971   621 H    0.966
                           604 O    0.952
   606   6 C    3.957 --   605 C    0.986   607 O    0.976   608 C    0.966
                           623 H    0.953
   607   8 O    2.076 --   606 C    0.976   611 C    0.969
   608   6 C    3.918 --   610 C    0.984   606 C    0.966   624 H    0.961
                           609 O    0.929
   609   8 O    2.263 --   633 P    1.118   608 C    0.929
   610   6 C    3.964 --   608 C    0.984   611 C    0.970   625 H    0.964
                           626 H    0.964
   611   6 C    3.923 --   610 C    0.970   607 O    0.969   612 N    0.967
                           627 H    0.946
   612   7 N    3.519 --   620 C    1.201   613 C    1.078   611 C    0.967
                           614 O    0.102
   613   6 C    3.953 --   614 O    1.639   615 N    1.166   612 N    1.078
   614   8 O    1.956 --   613 C    1.639   615 N    0.137   612 N    0.102
   615   7 N    3.519 --   613 C    1.166   616 C    1.132   628 H    0.849
                           617 O    0.144   614 O    0.137
   616   6 C    3.949 --   617 O    1.674   615 N    1.132   618 C    1.059
   617   8 O    2.029 --   616 C    1.674   615 N    0.144
   618   6 C    3.852 --   620 C    1.545   616 C    1.059   619 C    1.053
   619   6 C    3.902 --   618 C    1.053   629 H    0.975   631 H    0.909
                           630 H    0.900
   620   6 C    3.865 --   618 C    1.545   612 N    1.201   632 H    0.943
   621   1 H    0.995 --   605 C    0.966
   622   1 H    0.998 --   605 C    0.971
   623   1 H    0.992 --   606 C    0.953
   624   1 H    0.995 --   608 C    0.961
   625   1 H    0.989 --   610 C    0.964
   626   1 H    0.993 --   610 C    0.964
   627   1 H    0.987 --   611 C    0.946
   628   1 H    0.926 --   615 N    0.849
   629   1 H    0.989 --   619 C    0.975
   630   1 H    0.934 --   619 C    0.900
   631   1 H    0.950 --   619 C    0.909
   632   1 H    0.983 --   620 C    0.943
   633  15 P    5.669 --   635 O    1.706   634 O    1.681   609 O    1.118
                           636 O    1.111
   634   8 O    1.857 --   633 P    1.681
   635   8 O    1.885 --   633 P    1.706
   636   8 O    2.262 --   633 P    1.111   637 C    0.947
   637   6 C    3.929 --   638 C    0.980   653 H    0.970   652 H    0.966
                           636 O    0.947
   638   6 C    3.953 --   637 C    0.980   639 O    0.975   640 C    0.968
                           654 H    0.951
   639   8 O    2.060 --   638 C    0.975   643 C    0.958
   640   6 C    3.926 --   642 C    0.987   638 C    0.968   655 H    0.963
                           641 O    0.933
   641   8 O    2.257 --   663 P    1.108   640 C    0.933
   642   6 C    3.973 --   640 C    0.987   643 C    0.980   657 H    0.966
                           656 H    0.963
   643   6 C    3.923 --   642 C    0.980   644 N    0.968   639 O    0.958
                           658 H    0.946
   644   7 N    3.522 --   651 C    1.220   645 C    1.047   643 C    0.968
   645   6 C    3.937 --   646 O    1.562   647 N    1.239   644 N    1.047
   646   8 O    1.922 --   645 C    1.562   647 N    0.124
   647   7 N    3.004 --   648 C    1.331   645 C    1.239   646 O    0.124
                           649 N    0.115
   648   6 C    3.975 --   649 N    1.417   647 N    1.331   650 C    1.141
   649   7 N    3.451 --   648 C    1.417   660 H    0.904   659 H    0.859
                           647 N    0.115
   650   6 C    3.872 --   651 C    1.612   648 C    1.141   661 H    0.943
   651   6 C    3.926 --   650 C    1.612   644 N    1.220   662 H    0.950
   652   1 H    0.994 --   637 C    0.966
   653   1 H    0.996 --   637 C    0.970
   654   1 H    0.988 --   638 C    0.951
   655   1 H    0.996 --   640 C    0.963
   656   1 H    0.992 --   642 C    0.963
   657   1 H    0.993 --   642 C    0.966
   658   1 H    0.989 --   643 C    0.946
   659   1 H    0.914 --   649 N    0.859
   660   1 H    0.925 --   649 N    0.904
   661   1 H    0.975 --   650 C    0.943
   662   1 H    0.985 --   651 C    0.950
   663  15 P    5.664 --   665 O    1.702   664 O    1.681   666 O    1.122
                           641 O    1.108
   664   8 O    1.859 --   663 P    1.681
   665   8 O    1.878 --   663 P    1.702
   666   8 O    2.267 --   663 P    1.122   667 C    0.943
   667   6 C    3.930 --   668 C    0.988   687 H    0.969   686 H    0.965
                           666 O    0.943
   668   6 C    3.946 --   667 C    0.988   669 O    0.976   670 C    0.955
                           688 H    0.946
   669   8 O    2.067 --   668 C    0.976   673 C    0.964
   670   6 C    3.923 --   672 C    0.981   689 H    0.963   668 C    0.955
                           671 O    0.943
   671   8 O    2.274 --   697 P    1.119   670 C    0.943
   672   6 C    3.961 --   670 C    0.981   673 C    0.973   690 H    0.967
                           691 H    0.957
   673   6 C    3.917 --   672 C    0.973   674 N    0.968   669 O    0.964
                           692 H    0.941
   674   7 N    3.553 --   684 C    1.163   675 C    1.087   673 C    0.968
   675   6 C    3.947 --   685 O    1.573   676 N    1.225   674 N    1.087
   676   7 N    3.473 --   675 C    1.225   677 C    1.171   693 H    0.859
   677   6 C    3.732 --   684 C    1.274   676 N    1.171   678 C    1.092
   678   6 C    3.956 --   679 O    1.657   680 N    1.126   677 C    1.092
   679   8 O    1.983 --   678 C    1.657   680 N    0.147
   680   7 N    3.522 --   681 C    1.192   678 C    1.126   694 H    0.829
                           679 O    0.147
   681   6 C    3.963 --   682 N    1.418   683 N    1.284   680 N    1.192
   682   7 N    3.406 --   681 C    1.418   696 H    0.902   695 H    0.843
   683   7 N    2.918 --   684 C    1.320   681 C    1.284
   684   6 C    3.925 --   683 N    1.320   677 C    1.274   674 N    1.163
   685   8 O    1.831 --   675 C    1.573
   686   1 H    0.994 --   667 C    0.965
   687   1 H    0.997 --   667 C    0.969
   688   1 H    0.986 --   668 C    0.946
   689   1 H    0.996 --   670 C    0.963
   690   1 H    0.989 --   672 C    0.967
   691   1 H    0.988 --   672 C    0.957
   692   1 H    0.984 --   673 C    0.941
   693   1 H    0.889 --   676 N    0.859
   694   1 H    0.921 --   680 N    0.829
   695   1 H    0.915 --   682 N    0.843
   696   1 H    0.923 --   682 N    0.902
   697  15 P    5.662 --   699 O    1.688   698 O    1.653   700 O    1.142
                           671 O    1.119
   698   8 O    1.846 --   697 P    1.653
   699   8 O    1.872 --   697 P    1.688
   700   8 O    2.272 --   697 P    1.142   701 C    0.936
   701   6 C    3.913 --   702 C    0.983   717 H    0.968   716 H    0.960
                           700 O    0.936
   702   6 C    3.951 --   701 C    0.983   703 O    0.975   704 C    0.964
                           718 H    0.948
   703   8 O    2.063 --   702 C    0.975   707 C    0.961
   704   6 C    3.923 --   706 C    0.981   702 C    0.964   719 H    0.962
                           705 O    0.940
   705   8 O    2.256 --   727 P    1.104   704 C    0.940
   706   6 C    3.961 --   704 C    0.981   707 C    0.971   721 H    0.966
                           720 H    0.966
   707   6 C    3.916 --   706 C    0.971   708 N    0.968   703 O    0.961
                           722 H    0.943
   708   7 N    3.521 --   715 C    1.234   709 C    1.043   707 C    0.968
   709   6 C    3.943 --   710 O    1.577   711 N    1.235   708 N    1.043
   710   8 O    1.937 --   709 C    1.577   711 N    0.123
   711   7 N    3.008 --   712 C    1.333   709 C    1.235   710 O    0.123
                           713 N    0.103
   712   6 C    3.972 --   713 N    1.413   711 N    1.333   714 C    1.141
   713   7 N    3.439 --   712 C    1.413   724 H    0.910   723 H    0.855
                           711 N    0.103
   714   6 C    3.862 --   715 C    1.603   712 C    1.141   725 H    0.950
   715   6 C    3.933 --   714 C    1.603   708 N    1.234   726 H    0.947
   716   1 H    0.989 --   701 C    0.960
   717   1 H    0.994 --   701 C    0.968
   718   1 H    0.986 --   702 C    0.948
   719   1 H    0.994 --   704 C    0.962
   720   1 H    0.993 --   706 C    0.966
   721   1 H    0.993 --   706 C    0.966
   722   1 H    0.985 --   707 C    0.943
   723   1 H    0.917 --   713 N    0.855
   724   1 H    0.930 --   713 N    0.910
   725   1 H    0.982 --   714 C    0.950
   726   1 H    0.987 --   715 C    0.947
   727  15 P    5.637 --   729 O    1.680   728 O    1.668   730 O    1.131
                           705 O    1.104
   728   8 O    1.839 --   727 P    1.668
   729   8 O    1.851 --   727 P    1.680
   730   8 O    2.260 --   727 P    1.131   731 C    0.935
   731   6 C    3.901 --   732 C    0.976   749 H    0.964   750 H    0.962
                           730 O    0.935
   732   6 C    3.921 --   731 C    0.976   733 O    0.973   734 C    0.968
                           751 H    0.931
   733   8 O    2.065 --   732 C    0.973   737 C    0.973
   734   6 C    3.946 --   735 O    1.000   736 C    0.975   732 C    0.968
                           752 H    0.954
   735   8 O    1.917 --   734 C    1.000   753 H    0.854
   736   6 C    3.951 --   734 C    0.975   737 C    0.970   754 H    0.969
                           755 H    0.966
   737   6 C    3.899 --   733 O    0.973   736 C    0.970   738 N    0.959
                           756 H    0.927
   738   7 N    3.619 --   739 C    1.244   748 C    1.160   737 C    0.959
   739   6 C    3.849 --   740 N    1.537   738 N    1.244   757 H    0.953
   740   7 N    2.981 --   739 C    1.537   741 C    1.251
   741   6 C    3.798 --   748 C    1.259   740 N    1.251   742 C    1.088
   742   6 C    3.950 --   743 O    1.642   744 N    1.134   741 C    1.088
   743   8 O    1.965 --   742 C    1.642   744 N    0.133
   744   7 N    3.524 --   745 C    1.194   742 C    1.134   758 H    0.843
                           743 O    0.133
   745   6 C    3.956 --   746 N    1.416   747 N    1.281   744 N    1.194
   746   7 N    3.391 --   745 C    1.416   760 H    0.890   759 H    0.855
   747   7 N    2.826 --   748 C    1.306   745 C    1.281
   748   6 C    3.895 --   747 N    1.306   741 C    1.259   738 N    1.160
   749   1 H    0.992 --   731 C    0.964
   750   1 H    0.988 --   731 C    0.962
   751   1 H    0.963 --   732 C    0.931
   752   1 H    0.985 --   734 C    0.954
   753   1 H    0.868 --   735 O    0.854
   754   1 H    0.993 --   736 C    0.969
   755   1 H    0.988 --   736 C    0.966
   756   1 H    0.961 --   737 C    0.927
   757   1 H    0.990 --   739 C    0.953
   758   1 H    0.924 --   744 N    0.843
   759   1 H    0.918 --   746 N    0.855
   760   1 H    0.910 --   746 N    0.890
 ---------------------------------------------------------------------------

Topologies differ in total number of bonds
Writing topology from bond orders to xtbtopo.mol

molecular dipole:
                 x           y           z       tot (Debye)
 q only:       44.273       3.331       0.348
   full:       39.312       3.021       0.309     100.218
molecular quadrupole (traceless):
                xx          xy          yy          xz          yz          zz
 q only:    -2564.916     -65.667   -2585.141    1811.830    2471.431    5150.058
  q+dip:    -2492.869     -64.961   -2463.088    1593.562    2252.029    4955.957
   full:    -2517.304     -64.971   -2487.298    1593.342    2253.547    5004.601


           -------------------------------------------------
          | TOTAL ENERGY            -1541.774752337606 Eh   |
          | GRADIENT NORM               0.573150268562 Eh/α |
          | HOMO-LUMO GAP               0.000241695660 eV   |
           -------------------------------------------------

------------------------------------------------------------------------
 * finished run on 2023/03/21 at 23:42:20.249     
------------------------------------------------------------------------
 total:
 * wall-time:     0 d,  0 h,  0 min, 52.055 sec
 *  cpu-time:     0 d,  0 h,  8 min, 28.947 sec
 * ratio c/w:     9.777 speedup
 SCF:
 * wall-time:     0 d,  0 h,  0 min, 51.004 sec
 *  cpu-time:     0 d,  0 h,  8 min, 22.394 sec
 * ratio c/w:     9.850 speedup

