      -----------------------------------------------------------      
     |                   =====================                   |     
     |                           x T B                           |     
     |                   =====================                   |     
     |                         S. Grimme                         |     
     |          Mulliken Center for Theoretical Chemistry        |     
     |                    University of Bonn                     |     
      -----------------------------------------------------------      

   * xtb version 6.5.1 (579679a) compiled by 'ehlert@majestix' on 2022-07-11

   xtb is free software: you can redistribute it and/or modify it under
   the terms of the GNU Lesser General Public License as published by
   the Free Software Foundation, either version 3 of the License, or
   (at your option) any later version.
   
   xtb is distributed in the hope that it will be useful,
   but WITHOUT ANY WARRANTY; without even the implied warranty of
   MERCHANTABILITY or FITNESS FOR A PARTICULAR PURPOSE.  See the
   GNU Lesser General Public License for more details.
   
   Cite this work as:
   * C. Bannwarth, E. Caldeweyher, S. Ehlert, A. Hansen, P. Pracht,
     J. Seibert, S. Spicher, S. Grimme, WIREs Comput. Mol. Sci., 2020, 11,
     e01493. DOI: 10.1002/wcms.1493
   
   for GFN2-xTB:
   * C. Bannwarth, S. Ehlert and S. Grimme., J. Chem. Theory Comput., 2019,
     15, 1652-1671. DOI: 10.1021/acs.jctc.8b01176
   for GFN1-xTB:
   * S. Grimme, C. Bannwarth, P. Shushkov, J. Chem. Theory Comput., 2017,
     13, 1989-2009. DOI: 10.1021/acs.jctc.7b00118
   for GFN0-xTB:
   * P. Pracht, E. Caldeweyher, S. Ehlert, S. Grimme, ChemRxiv, 2019, preprint.
     DOI: 10.26434/chemrxiv.8326202.v1
   for GFN-FF:
   * S. Spicher and S. Grimme, Angew. Chem. Int. Ed., 2020, 59, 15665-15673.
     DOI: 10.1002/anie.202004239
   
   for ALPB and GBSA implicit solvation:
   * S. Ehlert, M. Stahn, S. Spicher, S. Grimme, J. Chem. Theory Comput.,
     2021, 17, 4250-4261. DOI: 10.1021/acs.jctc.1c00471
   
   for DFT-D4:
   * E. Caldeweyher, C. Bannwarth and S. Grimme, J. Chem. Phys., 2017,
     147, 034112. DOI: 10.1063/1.4993215
   * E. Caldeweyher, S. Ehlert, A. Hansen, H. Neugebauer, S. Spicher,
     C. Bannwarth and S. Grimme, J. Chem. Phys., 2019, 150, 154122.
     DOI: 10.1063/1.5090222
   * E. Caldeweyher, J.-M. Mewes, S. Ehlert and S. Grimme, Phys. Chem. Chem. Phys.
     2020, 22, 8499-8512. DOI: 10.1039/D0CP00502A
   
   for sTDA-xTB:
   * S. Grimme and C. Bannwarth, J. Chem. Phys., 2016, 145, 054103.
     DOI: 10.1063/1.4959605
   
   in the mass-spec context:
   * V. Asgeirsson, C. Bauer and S. Grimme, Chem. Sci., 2017, 8, 4879.
     DOI: 10.1039/c7sc00601b
   * J. Koopman and S. Grimme, ACS Omega 2019, 4, 12, 15120-15133.
     DOI: 10.1021/acsomega.9b02011
   
   for metadynamics refer to:
   * S. Grimme, J. Chem. Theory Comput., 2019, 155, 2847-2862
     DOI: 10.1021/acs.jctc.9b00143
   
   for SPH calculations refer to:
   * S. Spicher and S. Grimme, J. Chem. Theory Comput., 2021, 17, 1701-1714
     DOI: 10.1021/acs.jctc.0c01306
   
   with help from (in alphabetical order)
   P. Atkinson, C. Bannwarth, F. Bohle, G. Brandenburg, E. Caldeweyher
   M. Checinski, S. Dohm, S. Ehlert, S. Ehrlich, I. Gerasimov, C. Hölzer
   A. Katbashev, J. Koopman, C. Lavigne, S. Lehtola, F. März, M. Müller,
   F. Musil, H. Neugebauer, J. Pisarek, C. Plett, P. Pracht, F. Pultar,
   J. Seibert, P. Shushkov, S. Spicher, M. Stahn, M. Steiner, T. Strunk,
   J. Stückrath, T. Rose, and J. Unsleber
   
 * started run on 2023/04/12 at 14:27:37.980     

           -------------------------------------------------
          |                Calculation Setup                |
           -------------------------------------------------

          program call               : /N/u/schandy/BigRed3/bin/xtb-6.5.1/bin/xtb 7bfx_min.xyz --gbsa water
          hostname                   : nid00026
          coordinate file            : 7bfx_min.xyz
          omp threads                :                    10

   ID    Z sym.   atoms
    1    8 O      1, 4, 6, 32-34, 37, 39, 47, 65-67, 70, 72, 77, 95-97, 100,
                  102, 127-129, 132, 134, 159-161, 164, 166, 171, 174,
                  191-193, 196, 198, 203, 221-223, 226, 228, 233, 251-253,
                  256, 258, 263, 281-283, 286, 288, 293, 311-313, 316, 318,
                  323, 341-343, 346, 348, 353, 371-373, 376, 378, 386,
                  404-406, 409, 411, 419, 437-439, 442, 444, 469-471, 474,
                  476, 481, 484, 501-503, 506, 508, 513, 516, 533-535, 538,
                  540, 548, 566-568, 571, 573, 578, 596-598, 601, 603, 608,
                  611
    2    6 C      2, 3, 5, 7, 8, 10, 12, 13, 16, 18, 35, 36, 38, 40, 41, 43,
                  45, 46, 49, 52, 68, 69, 71, 73, 74, 76, 79, 81, 82, 98, 99,
                  101, 103, 104, 106, 108, 109, 112, 114, 130, 131, 133, 135,
                  136, 138, 140, 141, 144, 146, 162, 163, 165, 167, 168, 170,
                  173, 175-177, 194, 195, 197, 199, 200, 202, 205, 207, 208,
                  224, 225, 227, 229, 230, 232, 235, 237, 238, 254, 255, 257,
                  259, 260, 262, 265, 267, 268, 284, 285, 287, 289, 290, 292,
                  295, 297, 298, 314, 315, 317, 319, 320, 322, 325, 327, 328,
                  344, 345, 347, 349, 350, 352, 355, 357, 358, 374, 375, 377,
                  379, 380, 382, 384, 385, 388, 391, 407, 408, 410, 412, 413,
                  415, 417, 418, 421, 424, 440, 441, 443, 445, 446, 448, 450,
                  451, 454, 456, 472, 473, 475, 477, 478, 480, 483, 485-487,
                  504, 505, 507, 509, 510, 512, 515, 517-519, 536, 537, 539,
                  541, 542, 544, 546, 547, 550, 553, 569, 570, 572, 574, 575,
                  577, 580, 582, 583, 599, 600, 602, 604, 605, 607, 610,
                  612-614
    3    7 N      9, 11, 14, 15, 17, 42, 44, 48, 50, 51, 75, 78, 80, 105,
                  107, 110, 111, 113, 137, 139, 142, 143, 145, 169, 172, 201,
                  204, 206, 231, 234, 236, 261, 264, 266, 291, 294, 296, 321,
                  324, 326, 351, 354, 356, 381, 383, 387, 389, 390, 414, 416,
                  420, 422, 423, 447, 449, 452, 453, 455, 479, 482, 511, 514,
                  543, 545, 549, 551, 552, 576, 579, 581, 606, 609
    4    1 H      19-30, 53-63, 83-93, 115-125, 147-157, 178-189, 209-219,
                  239-249, 269-279, 299-309, 329-339, 359-369, 392-402,
                  425-435, 457-467, 488-499, 520-531, 554-564, 584-594,
                  615-627
    5   15 P      31, 64, 94, 126, 158, 190, 220, 250, 280, 310, 340, 370,
                  403, 436, 468, 500, 532, 565, 595

           -------------------------------------------------
          |                 G F N 2 - x T B                 |
           -------------------------------------------------

        Reference                      10.1021/acs.jctc.8b01176
      * Hamiltonian:
        H0-scaling (s, p, d)           1.850000    2.230000    2.230000
        zeta-weighting                 0.500000
      * Dispersion:
        s8                             2.700000
        a1                             0.520000
        a2                             5.000000
        s9                             5.000000
      * Repulsion:
        kExp                           1.500000    1.000000
        rExp                           1.000000
      * Coulomb:
        alpha                          2.000000
        third order                    shell-resolved
        anisotropic                    true
        a3                             3.000000
        a5                             4.000000
        cn-shift                       1.200000
        cn-exp                         4.000000
        max-rad                        5.000000

      * Solvation model:               GBSA
        Solvent                        water
        Parameter file                 internal GFN2-xTB/GBSA
        Dielectric constant                8.0200E+01
        Reference state                gsolv [1 M gas/solution]
        Free energy shift                  1.8574E-03 Eh       1.1656E+00 kcal/mol
        Temperature                        2.9815E+02 K
        Density                            1.0000E+00 kg/L
        Solvent mass                       1.8000E+01 g/mol
        Interaction kernel             Still
        Born radius scaling (c1)           1.5524E+00
        Born radii integrator          GBOBC
        Born offset                        2.4628E-02 a0       4.6540E-02 AA
        H-bond correction              true
        Ion screening                  false
        Surface tension                    1.0000E-05 Eh       1.5569E+01 dyn/cm
        Grid points                               230 per atom
q/qsh data taken from xtbrestart
CAMM data taken from xtbrestart

          ...................................................
          :                      SETUP                      :
          :.................................................:
          :  # basis functions                1944          :
          :  # atomic orbitals                1925          :
          :  # shells                         1047          :
          :  # electrons                      2157          :
          :  max. iterations                   250          :
          :  Hamiltonian                  GFN2-xTB          :
          :  restarted?                       true          :
          :  GBSA solvation                   true          :
          :  PC potential                    false          :
          :  electronic temp.          300.0000000     K    :
          :  accuracy                    1.0000000          :
          :  -> integral cutoff          0.2500000E+02      :
          :  -> integral neglect         0.1000000E-07      :
          :  -> SCF convergence          0.1000000E-05 Eh   :
          :  -> wf. convergence          0.1000000E-03 e    :
          :  Broyden damping             0.4000000          :
          ...................................................

 iter      E             dE          RMSdq      gap      omega  full diag
   1  -1278.5212518 -0.127852E+04  0.130E+00    0.00       0.0  T
   2  -1277.7457124  0.775539E+00  0.165E+00    0.04       1.0  T
   3  -1275.8806374  0.186507E+01  0.190E+00    0.02       1.0  T
   4  -1276.7656995 -0.885062E+00  0.160E+00    0.04       1.0  T
   5  -1278.2549017 -0.148920E+01  0.128E+00    0.02       1.0  T
   6  -1278.8620843 -0.607183E+00  0.108E+00    0.00       1.0  T
   7  -1278.5486709  0.313413E+00  0.111E+00    0.01       1.0  T
   8  -1279.1969999 -0.648329E+00  0.922E-01    0.01       1.0  T
   9  -1279.0886723  0.108328E+00  0.894E-01    0.01       1.0  T
  10  -1279.5101187 -0.421446E+00  0.712E-01    0.01       1.0  T
  11  -1279.3146912  0.195428E+00  0.805E-01    0.00       1.0  T
  12  -1279.7288577 -0.414166E+00  0.568E-01    0.00       1.0  T
  13  -1279.5736726  0.155185E+00  0.654E-01    0.01       1.0  T
  14  -1279.7159223 -0.142250E+00  0.561E-01    0.00       1.0  T
  15  -1279.6092423  0.106680E+00  0.590E-01    0.01       1.0  T
  16  -1279.9156346 -0.306392E+00  0.350E-01    0.00       1.0  T
  17  -1279.9357698 -0.201353E-01  0.326E-01    0.00       1.0  T
  18  -1279.8844999  0.512699E-01  0.392E-01    0.00       1.0  T
  19  -1279.9175969 -0.330970E-01  0.341E-01    0.00       1.0  T
  20  -1279.9980477 -0.804507E-01  0.228E-01    0.00       1.0  T
  21  -1280.0089178 -0.108701E-01  0.206E-01    0.00       1.0  T
  22  -1279.9958087  0.131091E-01  0.248E-01    0.00       1.0  T
  23  -1280.0019686 -0.615992E-02  0.220E-01    0.00       1.0  T
  24  -1280.0231188 -0.211502E-01  0.160E-01    0.00       1.0  T
  25  -1280.0257204 -0.260161E-02  0.162E-01    0.00       1.0  T
  26  -1280.0351326 -0.941219E-02  0.137E-01    0.00       1.0  T
  27  -1280.0394720 -0.433941E-02  0.114E-01    0.00       1.0  T
  28  -1280.0393766  0.954336E-04  0.123E-01    0.00       1.0  T
  29  -1280.0404998 -0.112322E-02  0.117E-01    0.00       1.0  T
  30  -1280.0456181 -0.511834E-02  0.856E-02    0.00       1.0  T
  31  -1280.0477373 -0.211918E-02  0.674E-02    0.00       1.0  T
  32  -1280.0501663 -0.242903E-02  0.441E-02    0.00       1.0  T
  33  -1280.0496143  0.552018E-03  0.479E-02    0.00       1.0  T
  34  -1280.0506601 -0.104580E-02  0.355E-02    0.00       1.0  T
  35  -1280.0504108  0.249337E-03  0.395E-02    0.00       1.0  T
  36  -1280.0511887 -0.777924E-03  0.276E-02    0.00       1.0  T
  37  -1280.0514876 -0.298943E-03  0.205E-02    0.00       1.0  T
  38  -1280.0514935 -0.588442E-05  0.206E-02    0.00       1.0  T
  39  -1280.0516004 -0.106910E-03  0.185E-02    0.00       1.0  T
  40  -1280.0516004  0.525772E-07  0.158E-02    0.00       1.0  T
  41  -1280.0516005 -0.121982E-06  0.172E-02    0.00       1.0  T
  42  -1280.0516563 -0.558498E-04  0.157E-02    0.00       1.0  T
  43  -1280.0518074 -0.151056E-03  0.994E-03    0.00       1.0  T
  44  -1280.0518404 -0.330062E-04  0.920E-03    0.00       1.0  T
  45  -1280.0518579 -0.174819E-04  0.786E-03    0.00       1.0  T
  46  -1280.0518454  0.124372E-04  0.900E-03    0.00       1.0  T
  47  -1280.0518851 -0.397015E-04  0.672E-03    0.00       1.0  T
  48  -1280.0519003 -0.151741E-04  0.526E-03    0.00       1.0  T
  49  -1280.0519104 -0.100444E-04  0.362E-03    0.00       1.1  T
  50  -1280.0519105 -0.156481E-06  0.387E-03    0.00       1.0  T
  51  -1280.0519158 -0.523190E-05  0.291E-03    0.00       1.4  T
  52  -1280.0519174 -0.162128E-05  0.262E-03    0.00       1.5  T
  53  -1280.0519181 -0.731574E-06  0.241E-03    0.00       1.7  T
  54  -1280.0519222 -0.408119E-05  0.139E-03    0.00       2.9  T
  55  -1280.0519223 -0.751747E-07  0.134E-03    0.00       3.0  T
  56  -1280.0519223  0.291038E-08  0.130E-03    0.00       3.1  T
  57  -1280.0519225 -0.266681E-06  0.126E-03    0.00       3.2  T
  58  -1280.0519229 -0.399653E-06  0.107E-03    0.00       3.7  T
  59  -1280.0519234 -0.505426E-06  0.825E-04    0.00       4.8  T
  60  -1280.0519235 -0.105212E-06  0.793E-04    0.00       5.0  T

   *** convergence criteria satisfied after 60 iterations ***

         #    Occupation            Energy/Eh            Energy/eV
      -------------------------------------------------------------
         1        2.0000           -0.7842112             -21.3395
       ...           ...                  ...                  ...
      1073        1.5084           -0.4422344             -12.0338
      1074        1.4594           -0.4421128             -12.0305
      1075        1.4395           -0.4420653             -12.0292
      1076        1.4249           -0.4420311             -12.0283
      1077        1.4192           -0.4420179             -12.0279
      1078        1.4041           -0.4419835             -12.0270
      1079        1.3773           -0.4419232             -12.0253 (HOMO)
      1080        1.3300           -0.4418203             -12.0225 (LUMO)
      1081        1.3290           -0.4418183             -12.0225
      1082        1.2999           -0.4417568             -12.0208
      1083        1.2888           -0.4417336             -12.0202
      1084        1.2061           -0.4415659             -12.0156
       ...           ...                  ...                  ...
      1925                          1.3878009              37.7640
      -------------------------------------------------------------
                  HL-Gap            0.0001029 Eh            0.0028 eV
             Fermi-level           -0.4411681 Eh          -12.0048 eV

 SCC (total)                   0 d,  0 h,  0 min, 29.259 sec
 SCC setup                      ...        0 min,  0.054 sec (  0.185%)
 Dispersion                     ...        0 min,  0.200 sec (  0.683%)
 classical contributions        ...        0 min,  0.002 sec (  0.008%)
 integral evaluation            ...        0 min,  0.430 sec (  1.469%)
 iterations                     ...        0 min, 27.429 sec ( 93.744%)
 molecular gradient             ...        0 min,  1.080 sec (  3.692%)
 printout                       ...        0 min,  0.064 sec (  0.218%)

         :::::::::::::::::::::::::::::::::::::::::::::::::::::
         ::                     SUMMARY                     ::
         :::::::::::::::::::::::::::::::::::::::::::::::::::::
         :: total energy           -1267.600810039451 Eh    ::
         :: total w/o Gsasa/hb     -1267.471778198599 Eh    ::
         :: gradient norm              0.803158441299 Eh/a0 ::
         :: HOMO-LUMO gap              0.002800458496 eV    ::
         ::.................................................::
         :: SCC energy             -1280.051923538351 Eh    ::
         :: -> isotropic ES            5.346284903851 Eh    ::
         :: -> anisotropic ES         -0.597785920433 Eh    ::
         :: -> anisotropic XC          0.214703409852 Eh    ::
         :: -> dispersion             -1.071516334568 Eh    ::
         :: -> Gsolv                  -1.562218464393 Eh    ::
         ::    -> Gelec               -1.433186623541 Eh    ::
         ::    -> Gsasa               -0.005756472222 Eh    ::
         ::    -> Ghb                 -0.125132811757 Eh    ::
         ::    -> Gshift               0.001857443127 Eh    ::
         :: repulsion energy          12.368441172098 Eh    ::
         :: add. restraining           0.000000000000 Eh    ::
         :: total charge               0.000000000014 e     ::
         :::::::::::::::::::::::::::::::::::::::::::::::::::::

           -------------------------------------------------
          |                Property Printout                |
           -------------------------------------------------

    * Orbital Energies and Occupations

         #    Occupation            Energy/Eh            Energy/eV
      -------------------------------------------------------------
         1        2.0000           -0.7842112             -21.3395
       ...           ...                  ...                  ...
      1067        1.6560           -0.4426626             -12.0455
      1068        1.6488           -0.4426388             -12.0448
      1069        1.6394           -0.4426085             -12.0440
      1070        1.6352           -0.4425948             -12.0436
      1071        1.6277           -0.4425712             -12.0430
      1072        1.6252           -0.4425633             -12.0428
      1073        1.5084           -0.4422344             -12.0338
      1074        1.4594           -0.4421128             -12.0305
      1075        1.4395           -0.4420653             -12.0292
      1076        1.4249           -0.4420311             -12.0283
      1077        1.4192           -0.4420179             -12.0279
      1078        1.4041           -0.4419835             -12.0270
      1079        1.3773           -0.4419232             -12.0253 (HOMO)
      1080        1.3300           -0.4418203             -12.0225 (LUMO)
      1081        1.3290           -0.4418183             -12.0225
      1082        1.2999           -0.4417568             -12.0208
      1083        1.2888           -0.4417336             -12.0202
      1084        1.2061           -0.4415659             -12.0156
      1085        1.1488           -0.4414534             -12.0126
      1086        1.1347           -0.4414260             -12.0118
      1087        1.0349           -0.4412345             -12.0066
      1088        0.9641           -0.4410998             -12.0029
      1089                         -0.3221440              -8.7660
      1090                         -0.3194894              -8.6938
       ...                                ...                  ...
      1925                          1.3878009              37.7640
      -------------------------------------------------------------
                  HL-Gap            0.0001029 Eh            0.0028 eV
             Fermi-level           -0.4411681 Eh          -12.0048 eV

 * generalized Born model for continuum solvation

     #   Z     Born rad/Å   SASA/Å²    H-bond
     1   8 O        2.210    16.550    -0.002
     2   6 C        2.718     1.003    -0.000
     3   6 C        3.115     0.181    -0.000
     4   8 O        2.681    11.239    -0.002
     5   6 C        3.207     0.048    -0.000
     6   8 O        2.790     0.274    -0.000
     7   6 C        3.096     1.343    -0.000
     8   6 C        3.228     1.280    -0.000
     9   7 N        3.493     0.967    -0.000
    10   6 C        3.079     5.957    -0.000
    11   7 N        2.701    16.329    -0.005
    12   6 C        3.768     3.879    -0.000
    13   6 C        3.526     4.112    -0.000
    14   7 N        2.587     3.914    -0.001
    15   7 N        3.244     2.380    -0.001
    16   6 C        3.073     6.006    -0.000
    17   7 N        2.773    11.201    -0.003
    18   6 C        3.802     3.345    -0.000
    19   1 H        2.090    14.384    -0.019
    20   1 H        2.134    10.435    -0.014
    21   1 H        2.141    15.061    -0.020
    22   1 H        2.165    12.033    -0.016
    23   1 H        2.380     2.654    -0.004
    24   1 H        2.138    17.511    -0.023
    25   1 H        2.175    16.510    -0.022
    26   1 H        2.273     7.114    -0.010
    27   1 H        2.624     1.600    -0.002
    28   1 H        2.151    20.553    -0.027
    29   1 H        2.258    10.654    -0.014
    30   1 H        1.895    23.255    -0.031
    31  15 P        3.177    10.486    -0.001
    32   8 O        2.176    24.517    -0.003
    33   8 O        2.215    22.664    -0.003
    34   8 O        2.619     6.909    -0.001
    35   6 C        3.012     0.217    -0.000
    36   6 C        3.456     0.036    -0.000
    37   8 O        3.353     0.106    -0.000
    38   6 C        3.451     0.031    -0.000
    39   8 O        2.895     0.154    -0.000
    40   6 C        3.210     1.550    -0.000
    41   6 C        3.664     0.086    -0.000
    42   7 N        4.061     0.000    -0.000
    43   6 C        3.290     1.311    -0.000
    44   7 N        2.860    11.915    -0.004
    45   6 C        4.210     0.534    -0.000
    46   6 C        3.557     0.621    -0.000
    47   8 O        2.517    13.849    -0.002
    48   7 N        3.686     0.006    -0.000
    49   6 C        3.954     0.133    -0.000
    50   7 N        2.786     0.904    -0.000
    51   7 N        3.257     4.448    -0.001
    52   6 C        4.452     0.000    -0.000
    53   1 H        2.303     5.834    -0.008
    54   1 H        2.505     0.753    -0.001
    55   1 H        2.294    10.924    -0.015
    56   1 H        2.264    10.879    -0.015
    57   1 H        2.372     3.745    -0.005
    58   1 H        2.184    16.667    -0.022
    59   1 H        2.385     8.754    -0.012
    60   1 H        2.329     8.349    -0.011
    61   1 H        3.843     0.172    -0.000
    62   1 H        2.915     0.329    -0.000
    63   1 H        2.245    19.241    -0.026
    64  15 P        3.231     7.621    -0.001
    65   8 O        2.211    23.825    -0.003
    66   8 O        2.191    25.508    -0.003
    67   8 O        2.644     4.873    -0.001
    68   6 C        2.941     0.548    -0.000
    69   6 C        3.475     0.001    -0.000
    70   8 O        3.184     0.232    -0.000
    71   6 C        3.378     0.029    -0.000
    72   8 O        2.781     0.751    -0.000
    73   6 C        3.230     1.296    -0.000
    74   6 C        3.734     0.007    -0.000
    75   7 N        3.781     0.035    -0.000
    76   6 C        3.654     0.081    -0.000
    77   8 O        2.739     5.726    -0.001
    78   7 N        3.625     0.041    -0.000
    79   6 C        3.673     1.026    -0.000
    80   7 N        2.662     3.131    -0.001
    81   6 C        3.233     4.687    -0.000
    82   6 C        3.360     1.115    -0.000
    83   1 H        2.175    11.333    -0.015
    84   1 H        2.348     3.584    -0.005
    85   1 H        2.417     6.239    -0.008
    86   1 H        2.230    10.635    -0.014
    87   1 H        2.394     3.415    -0.005
    88   1 H        2.198    16.130    -0.022
    89   1 H        2.488     5.307    -0.007
    90   1 H        2.622     3.039    -0.004
    91   1 H        2.196    19.754    -0.026
    92   1 H        2.125    18.608    -0.025
    93   1 H        2.319     8.942    -0.012
    94  15 P        3.213     9.928    -0.001
    95   8 O        2.196    24.414    -0.003
    96   8 O        2.198    24.784    -0.003
    97   8 O        2.628     6.197    -0.001
    98   6 C        3.002     0.231    -0.000
    99   6 C        3.448     0.011    -0.000
   100   8 O        3.267     0.462    -0.000
   101   6 C        3.391     0.053    -0.000
   102   8 O        2.785     0.794    -0.000
   103   6 C        3.208     1.388    -0.000
   104   6 C        3.748     0.057    -0.000
   105   7 N        4.144     0.000     0.000
   106   6 C        3.480     1.479    -0.000
   107   7 N        2.967    10.102    -0.003
   108   6 C        4.485     0.425    -0.000
   109   6 C        4.046     0.002    -0.000
   110   7 N        2.714     0.931    -0.000
   111   7 N        3.614     0.000    -0.000
   112   6 C        3.333     0.790    -0.000
   113   7 N        2.994     8.759    -0.003
   114   6 C        4.517     0.000     0.000
   115   1 H        2.239     9.044    -0.012
   116   1 H        2.608     0.054    -0.000
   117   1 H        2.336     9.660    -0.013
   118   1 H        2.247    10.584    -0.014
   119   1 H        2.345     6.620    -0.009
   120   1 H        2.200    16.255    -0.022
   121   1 H        2.560     4.815    -0.006
   122   1 H        2.483     4.896    -0.007
   123   1 H        2.537     3.741    -0.005
   124   1 H        2.247    18.113    -0.024
   125   1 H        2.382     7.815    -0.010
   126  15 P        3.225     9.368    -0.001
   127   8 O        2.203    23.732    -0.003
   128   8 O        2.206    24.611    -0.003
   129   8 O        2.669     4.579    -0.001
   130   6 C        3.041     0.356    -0.000
   131   6 C        3.464     0.109    -0.000
   132   8 O        3.296     0.405    -0.000
   133   6 C        3.401     0.034    -0.000
   134   8 O        2.838     1.209    -0.000
   135   6 C        3.381     0.143    -0.000
   136   6 C        3.635     0.084    -0.000
   137   7 N        3.989     0.035    -0.000
   138   6 C        3.409     0.945    -0.000
   139   7 N        2.967     7.241    -0.002
   140   6 C        4.419     0.001    -0.000
   141   6 C        4.062     0.000    -0.000
   142   7 N        2.736     0.197    -0.000
   143   7 N        3.517     0.023    -0.000
   144   6 C        3.213     0.888    -0.000
   145   7 N        2.953     8.676    -0.003
   146   6 C        4.395     0.067    -0.000
   147   1 H        2.293     7.145    -0.010
   148   1 H        2.570     0.063    -0.000
   149   1 H        2.332    12.381    -0.017
   150   1 H        2.228    11.949    -0.016
   151   1 H        2.694     0.003    -0.000
   152   1 H        2.255    15.138    -0.020
   153   1 H        2.337    12.513    -0.017
   154   1 H        2.399     8.201    -0.011
   155   1 H        2.541     2.156    -0.003
   156   1 H        2.280     7.780    -0.010
   157   1 H        2.309    10.350    -0.014
   158  15 P        3.215     8.093    -0.001
   159   8 O        2.187    25.035    -0.003
   160   8 O        2.209    24.782    -0.003
   161   8 O        2.657     5.356    -0.001
   162   6 C        2.972     0.453    -0.000
   163   6 C        3.488     0.024    -0.000
   164   8 O        3.214     1.202    -0.000
   165   6 C        3.398     0.031    -0.000
   166   8 O        2.861     0.333    -0.000
   167   6 C        3.201     1.258    -0.000
   168   6 C        3.652     0.156    -0.000
   169   7 N        3.905     0.000     0.000
   170   6 C        3.557     0.186    -0.000
   171   8 O        2.496    14.165    -0.002
   172   7 N        3.239     0.011    -0.000
   173   6 C        3.383     0.143    -0.000
   174   8 O        2.532    10.835    -0.001
   175   6 C        3.785     0.001    -0.000
   176   6 C        2.741     2.320    -0.000
   177   6 C        3.707     0.005    -0.000
   178   1 H        2.217    10.255    -0.014
   179   1 H        2.360     3.366    -0.004
   180   1 H        2.348    10.696    -0.014
   181   1 H        2.231    10.789    -0.014
   182   1 H        2.355     5.591    -0.007
   183   1 H        2.183    16.582    -0.022
   184   1 H        2.373    10.122    -0.014
   185   1 H        3.010     0.096    -0.000
   186   1 H        2.119    15.171    -0.020
   187   1 H        2.159    12.736    -0.017
   188   1 H        2.185    13.125    -0.018
   189   1 H        2.596     0.237    -0.000
   190  15 P        3.223     8.288    -0.001
   191   8 O        2.203    23.626    -0.003
   192   8 O        2.199    23.353    -0.003
   193   8 O        2.655     4.847    -0.001
   194   6 C        3.060     0.007    -0.000
   195   6 C        3.458     0.115    -0.000
   196   8 O        3.204     1.282    -0.000
   197   6 C        3.369     0.068    -0.000
   198   8 O        2.765     1.257    -0.000
   199   6 C        3.262     0.840    -0.000
   200   6 C        3.592     0.024    -0.000
   201   7 N        3.712     0.000    -0.000
   202   6 C        3.549     0.285    -0.000
   203   8 O        2.643    13.012    -0.002
   204   7 N        3.576     0.070    -0.000
   205   6 C        3.894     0.008    -0.000
   206   7 N        2.724     0.512    -0.000
   207   6 C        3.387     0.755    -0.000
   208   6 C        3.424     0.016    -0.000
   209   1 H        2.322     3.950    -0.005
   210   1 H        2.563     0.096    -0.000
   211   1 H        2.314    12.116    -0.016
   212   1 H        2.242    10.613    -0.014
   213   1 H        2.412     3.983    -0.005
   214   1 H        2.229    15.679    -0.021
   215   1 H        2.348    10.666    -0.014
   216   1 H        2.622     1.707    -0.002
   217   1 H        2.238    15.745    -0.021
   218   1 H        2.189    15.123    -0.020
   219   1 H        2.385     4.366    -0.006
   220  15 P        3.239     8.456    -0.001
   221   8 O        2.188    25.666    -0.004
   222   8 O        2.229    22.759    -0.003
   223   8 O        2.654     5.120    -0.001
   224   6 C        2.956     0.473    -0.000
   225   6 C        3.391     0.085    -0.000
   226   8 O        3.101     1.308    -0.000
   227   6 C        3.482     0.001    -0.000
   228   8 O        2.803     1.614    -0.000
   229   6 C        3.429     0.070    -0.000
   230   6 C        3.591     0.390    -0.000
   231   7 N        3.700     0.027    -0.000
   232   6 C        3.651     0.034    -0.000
   233   8 O        2.589    10.901    -0.001
   234   7 N        3.739     0.000    -0.000
   235   6 C        3.956     0.001    -0.000
   236   7 N        2.777     0.620    -0.000
   237   6 C        3.363     1.139    -0.000
   238   6 C        3.448     0.692    -0.000
   239   1 H        2.233     7.238    -0.010
   240   1 H        2.302     3.905    -0.005
   241   1 H        2.270    12.877    -0.017
   242   1 H        2.393     5.813    -0.008
   243   1 H        2.570     0.289    -0.000
   244   1 H        2.324     8.774    -0.012
   245   1 H        2.384    11.785    -0.016
   246   1 H        2.981     0.431    -0.001
   247   1 H        2.234    17.673    -0.024
   248   1 H        2.183    14.968    -0.020
   249   1 H        2.390     4.918    -0.007
   250  15 P        3.243     9.328    -0.001
   251   8 O        2.233    19.993    -0.003
   252   8 O        2.181    28.447    -0.004
   253   8 O        2.697     1.119    -0.000
   254   6 C        2.921     0.161    -0.000
   255   6 C        3.227     0.225    -0.000
   256   8 O        2.868     5.830    -0.001
   257   6 C        3.306     0.005    -0.000
   258   8 O        2.711     0.776    -0.000
   259   6 C        3.235     0.210    -0.000
   260   6 C        3.480     0.414    -0.000
   261   7 N        3.594     0.023    -0.000
   262   6 C        3.324     1.498    -0.000
   263   8 O        2.410    21.425    -0.003
   264   7 N        3.113     2.308    -0.001
   265   6 C        3.719     0.203    -0.000
   266   7 N        2.753     1.430    -0.000
   267   6 C        3.315     1.914    -0.000
   268   6 C        3.405     0.152    -0.000
   269   1 H        2.269     7.453    -0.010
   270   1 H        2.166    11.867    -0.016
   271   1 H        2.169    16.413    -0.022
   272   1 H        2.260     9.120    -0.012
   273   1 H        2.507     0.014    -0.000
   274   1 H        2.206    13.982    -0.019
   275   1 H        2.342    12.305    -0.016
   276   1 H        2.520     1.800    -0.002
   277   1 H        2.347    10.661    -0.014
   278   1 H        2.184    14.415    -0.019
   279   1 H        2.430     3.058    -0.004
   280  15 P        3.171     9.693    -0.001
   281   8 O        2.200    23.369    -0.003
   282   8 O        2.197    24.287    -0.003
   283   8 O        2.563     6.750    -0.001
   284   6 C        2.911     0.402    -0.000
   285   6 C        3.324     0.147    -0.000
   286   8 O        3.080     2.348    -0.000
   287   6 C        3.317     0.023    -0.000
   288   8 O        2.779     1.132    -0.000
   289   6 C        3.241     0.898    -0.000
   290   6 C        3.459     0.370    -0.000
   291   7 N        3.505     0.216    -0.000
   292   6 C        3.130     5.158    -0.000
   293   8 O        2.352    25.606    -0.004
   294   7 N        2.909     7.750    -0.002
   295   6 C        3.455     0.531    -0.000
   296   7 N        2.561     3.822    -0.001
   297   6 C        3.408     0.056    -0.000
   298   6 C        3.414     0.129    -0.000
   299   1 H        2.156    11.652    -0.016
   300   1 H        2.295     4.158    -0.006
   301   1 H        2.210    14.512    -0.019
   302   1 H        2.205    11.390    -0.015
   303   1 H        2.468     1.538    -0.002
   304   1 H        2.226    16.120    -0.022
   305   1 H        2.313    12.189    -0.016
   306   1 H        2.189    18.885    -0.025
   307   1 H        2.256    11.832    -0.016
   308   1 H        2.374     1.692    -0.002
   309   1 H        2.437     2.814    -0.004
   310  15 P        3.199     9.484    -0.001
   311   8 O        2.186    24.539    -0.003
   312   8 O        2.233    22.774    -0.003
   313   8 O        2.608     6.898    -0.001
   314   6 C        2.932     0.275    -0.000
   315   6 C        3.240     0.278    -0.000
   316   8 O        2.832     6.865    -0.001
   317   6 C        3.417     0.002    -0.000
   318   8 O        2.827     0.434    -0.000
   319   6 C        3.335     0.001    -0.000
   320   6 C        3.408     0.872    -0.000
   321   7 N        3.343     1.866    -0.001
   322   6 C        3.100     4.668    -0.000
   323   8 O        2.363    18.865    -0.003
   324   7 N        2.770    11.166    -0.003
   325   6 C        3.219     6.937    -0.000
   326   7 N        2.442     7.074    -0.002
   327   6 C        3.095     7.118    -0.000
   328   6 C        3.210     3.904    -0.000
   329   1 H        2.250     6.174    -0.008
   330   1 H        2.371     0.793    -0.001
   331   1 H        2.190    15.522    -0.021
   332   1 H        2.306     8.459    -0.011
   333   1 H        2.528     1.970    -0.003
   334   1 H        2.346     6.648    -0.009
   335   1 H        2.297    11.761    -0.016
   336   1 H        2.139    21.474    -0.029
   337   1 H        2.103    20.373    -0.027
   338   1 H        2.158     8.851    -0.012
   339   1 H        2.359     1.259    -0.002
   340  15 P        3.317     3.417    -0.000
   341   8 O        2.262    20.180    -0.003
   342   8 O        2.347     6.018    -0.001
   343   8 O        2.585     7.671    -0.001
   344   6 C        2.979     0.348    -0.000
   345   6 C        3.334     0.239    -0.000
   346   8 O        2.879     4.963    -0.001
   347   6 C        3.418     0.000    -0.000
   348   8 O        2.846     0.798    -0.000
   349   6 C        3.128     0.830    -0.000
   350   6 C        3.320     1.022    -0.000
   351   7 N        3.238     0.898    -0.000
   352   6 C        2.991     7.277    -0.000
   353   8 O        2.299    25.155    -0.003
   354   7 N        2.679    14.423    -0.004
   355   6 C        3.113     7.261    -0.000
   356   7 N        2.417     7.081    -0.002
   357   6 C        3.075     6.628    -0.000
   358   6 C        3.144     2.168    -0.000
   359   1 H        2.314     1.030    -0.001
   360   1 H        2.394     3.940    -0.005
   361   1 H        2.275    13.944    -0.019
   362   1 H        2.360     7.118    -0.010
   363   1 H        2.255     9.506    -0.013
   364   1 H        2.183    16.061    -0.021
   365   1 H        2.220    14.021    -0.019
   366   1 H        2.082    22.598    -0.030
   367   1 H        2.116    18.552    -0.025
   368   1 H        2.178     5.894    -0.008
   369   1 H        2.351     2.536    -0.003
   370  15 P        3.217     9.304    -0.001
   371   8 O        2.184    25.702    -0.004
   372   8 O        2.257    17.797    -0.002
   373   8 O        2.516     9.794    -0.001
   374   6 C        2.887     0.406    -0.000
   375   6 C        3.254     0.258    -0.000
   376   8 O        2.963     5.509    -0.001
   377   6 C        3.284     0.043    -0.000
   378   8 O        2.782     0.604    -0.000
   379   6 C        3.232     1.305    -0.000
   380   6 C        3.542     0.526    -0.000
   381   7 N        3.930     0.040    -0.000
   382   6 C        3.233     1.224    -0.000
   383   7 N        2.793    13.539    -0.004
   384   6 C        3.895     1.211    -0.000
   385   6 C        3.509     1.273    -0.000
   386   8 O        2.554    15.225    -0.002
   387   7 N        3.756     0.000     0.000
   388   6 C        3.948     0.513    -0.000
   389   7 N        2.761     2.047    -0.001
   390   7 N        3.277     5.117    -0.002
   391   6 C        4.284     1.072    -0.000
   392   1 H        2.162    11.715    -0.016
   393   1 H        2.300     2.289    -0.003
   394   1 H        2.203    14.480    -0.019
   395   1 H        2.176    11.668    -0.016
   396   1 H        2.474     2.034    -0.003
   397   1 H        2.203    16.235    -0.022
   398   1 H        2.357    13.605    -0.018
   399   1 H        2.268     6.905    -0.009
   400   1 H        3.827     0.000     0.000
   401   1 H        2.689     1.143    -0.002
   402   1 H        2.255    21.174    -0.028
   403  15 P        3.191     9.675    -0.001
   404   8 O        2.186    24.412    -0.003
   405   8 O        2.180    25.532    -0.004
   406   8 O        2.626     5.928    -0.001
   407   6 C        2.947     0.497    -0.000
   408   6 C        3.457     0.006    -0.000
   409   8 O        3.276     0.224    -0.000
   410   6 C        3.337     0.037    -0.000
   411   8 O        2.775     0.611    -0.000
   412   6 C        3.256     1.224    -0.000
   413   6 C        3.713     0.079    -0.000
   414   7 N        4.186     0.000     0.000
   415   6 C        3.391     0.958    -0.000
   416   7 N        2.939    12.179    -0.004
   417   6 C        4.366     0.070    -0.000
   418   6 C        3.733     0.024    -0.000
   419   8 O        2.557    10.374    -0.001
   420   7 N        3.728     0.035    -0.000
   421   6 C        3.929     0.627    -0.000
   422   7 N        2.738     4.079    -0.001
   423   7 N        3.296     5.854    -0.002
   424   6 C        4.620     0.028    -0.000
   425   1 H        2.179    12.592    -0.017
   426   1 H        2.404     2.833    -0.004
   427   1 H        2.384     8.569    -0.011
   428   1 H        2.226    12.024    -0.016
   429   1 H        2.397     3.565    -0.005
   430   1 H        2.220    15.727    -0.021
   431   1 H        2.438     9.093    -0.012
   432   1 H        2.346     9.425    -0.013
   433   1 H        3.454    -0.001     0.000
   434   1 H        2.747     2.060    -0.003
   435   1 H        2.227    22.018    -0.029
   436  15 P        3.198     9.532    -0.001
   437   8 O        2.196    24.340    -0.003
   438   8 O        2.204    24.085    -0.003
   439   8 O        2.657     4.495    -0.001
   440   6 C        2.985     0.278    -0.000
   441   6 C        3.422     0.036    -0.000
   442   8 O        3.244     0.267    -0.000
   443   6 C        3.312     0.134    -0.000
   444   8 O        2.681     2.626    -0.000
   445   6 C        3.339     0.004    -0.000
   446   6 C        3.628     0.208    -0.000
   447   7 N        3.914     0.363    -0.000
   448   6 C        3.389     1.117    -0.000
   449   7 N        3.058     5.839    -0.002
   450   6 C        4.617     0.000     0.000
   451   6 C        4.179     0.000     0.000
   452   7 N        2.778     0.648    -0.000
   453   7 N        3.454     0.052    -0.000
   454   6 C        3.179     2.889    -0.000
   455   7 N        2.916    11.627    -0.003
   456   6 C        4.311     0.921    -0.000
   457   1 H        2.217    11.689    -0.016
   458   1 H        2.510     0.589    -0.001
   459   1 H        2.296     9.813    -0.013
   460   1 H        2.262    11.012    -0.015
   461   1 H        2.393     4.899    -0.007
   462   1 H        2.347     4.801    -0.006
   463   1 H        2.402    13.160    -0.018
   464   1 H        2.342    10.317    -0.014
   465   1 H        2.643     1.612    -0.002
   466   1 H        2.309    11.155    -0.015
   467   1 H        2.274    13.307    -0.018
   468  15 P        3.153    10.790    -0.001
   469   8 O        2.179    25.988    -0.004
   470   8 O        2.197    23.954    -0.003
   471   8 O        2.636     4.839    -0.001
   472   6 C        2.914     0.404    -0.000
   473   6 C        3.281     0.218    -0.000
   474   8 O        2.998     4.464    -0.001
   475   6 C        3.308     0.021    -0.000
   476   8 O        2.762     0.798    -0.000
   477   6 C        3.202     0.871    -0.000
   478   6 C        3.476     0.796    -0.000
   479   7 N        3.562     0.806    -0.000
   480   6 C        3.381     2.461    -0.000
   481   8 O        2.469    13.921    -0.002
   482   7 N        3.102     0.676    -0.000
   483   6 C        3.317     2.275    -0.000
   484   8 O        2.560     7.895    -0.001
   485   6 C        3.608     1.148    -0.000
   486   6 C        2.782     2.481    -0.000
   487   6 C        3.376     0.851    -0.000
   488   1 H        2.201     9.498    -0.013
   489   1 H        2.305     4.626    -0.006
   490   1 H        2.201    14.785    -0.020
   491   1 H        2.176    11.718    -0.016
   492   1 H        2.402     2.883    -0.004
   493   1 H        2.204    16.115    -0.022
   494   1 H        2.299    14.583    -0.019
   495   1 H        2.922     0.095    -0.000
   496   1 H        2.109    20.609    -0.028
   497   1 H        2.321     4.671    -0.006
   498   1 H        2.237     7.891    -0.011
   499   1 H        2.408     1.370    -0.002
   500  15 P        3.210     8.663    -0.001
   501   8 O        2.193    23.846    -0.003
   502   8 O        2.209    24.542    -0.003
   503   8 O        2.634     5.993    -0.001
   504   6 C        2.975     0.217    -0.000
   505   6 C        3.412     0.037    -0.000
   506   8 O        3.033     1.221    -0.000
   507   6 C        3.395     0.010    -0.000
   508   8 O        2.801     0.481    -0.000
   509   6 C        3.225     1.183    -0.000
   510   6 C        3.542     0.160    -0.000
   511   7 N        3.710     0.007    -0.000
   512   6 C        3.588     0.025    -0.000
   513   8 O        2.553    11.582    -0.002
   514   7 N        3.377     0.002    -0.000
   515   6 C        3.445     0.138    -0.000
   516   8 O        2.548     9.367    -0.001
   517   6 C        3.721     0.004    -0.000
   518   6 C        2.730     2.345    -0.000
   519   6 C        3.503     0.051    -0.000
   520   1 H        2.278     7.252    -0.010
   521   1 H        2.363     2.536    -0.003
   522   1 H        2.301    11.117    -0.015
   523   1 H        2.260     9.925    -0.013
   524   1 H        2.386     2.707    -0.004
   525   1 H        2.186    16.046    -0.021
   526   1 H        2.304    12.850    -0.017
   527   1 H        3.314     0.001    -0.000
   528   1 H        2.127    15.633    -0.021
   529   1 H        2.147    12.451    -0.017
   530   1 H        2.166    14.050    -0.019
   531   1 H        2.407     2.571    -0.003
   532  15 P        3.213     8.544    -0.001
   533   8 O        2.191    24.816    -0.003
   534   8 O        2.193    24.672    -0.003
   535   8 O        2.670     4.677    -0.001
   536   6 C        3.007     0.218    -0.000
   537   6 C        3.522     0.006    -0.000
   538   8 O        3.204     0.541    -0.000
   539   6 C        3.430     0.034    -0.000
   540   8 O        2.938     0.087    -0.000
   541   6 C        3.222     1.593    -0.000
   542   6 C        3.690     0.141    -0.000
   543   7 N        4.085     0.000     0.000
   544   6 C        3.429     0.658    -0.000
   545   7 N        2.907    12.533    -0.004
   546   6 C        4.263     0.158    -0.000
   547   6 C        3.678     0.134    -0.000
   548   8 O        2.648     9.483    -0.001
   549   7 N        3.793     0.000     0.000
   550   6 C        4.002     0.111    -0.000
   551   7 N        2.796     1.149    -0.000
   552   7 N        3.295     5.366    -0.002
   553   6 C        4.565     0.000     0.000
   554   1 H        2.221     8.486    -0.011
   555   1 H        2.454     0.023    -0.000
   556   1 H        2.358     9.174    -0.012
   557   1 H        2.255    10.953    -0.015
   558   1 H        2.370     4.323    -0.006
   559   1 H        2.183    16.896    -0.023
   560   1 H        2.385     9.923    -0.013
   561   1 H        2.404     5.291    -0.007
   562   1 H        3.549     0.001    -0.000
   563   1 H        2.676     3.155    -0.004
   564   1 H        2.258    19.511    -0.026
   565  15 P        3.236     8.486    -0.001
   566   8 O        2.193    24.567    -0.003
   567   8 O        2.226    22.960    -0.003
   568   8 O        2.633     6.729    -0.001
   569   6 C        2.989     0.325    -0.000
   570   6 C        3.529     0.003    -0.000
   571   8 O        3.400     0.145    -0.000
   572   6 C        3.423     0.070    -0.000
   573   8 O        2.837     0.608    -0.000
   574   6 C        3.389     0.685    -0.000
   575   6 C        3.922     0.012    -0.000
   576   7 N        4.097     0.000    -0.000
   577   6 C        3.732     0.001    -0.000
   578   8 O        2.723     9.466    -0.001
   579   7 N        3.748     0.016    -0.000
   580   6 C        3.771     0.493    -0.000
   581   7 N        2.743     2.588    -0.001
   582   6 C        3.331     1.815    -0.000
   583   6 C        3.471     0.177    -0.000
   584   1 H        2.254     9.516    -0.013
   585   1 H        2.495     1.344    -0.002
   586   1 H        2.409     8.739    -0.012
   587   1 H        2.231    11.347    -0.015
   588   1 H        2.479     4.015    -0.005
   589   1 H        2.262    15.077    -0.020
   590   1 H        2.576     6.036    -0.008
   591   1 H        2.970     0.472    -0.001
   592   1 H        2.245    12.719    -0.017
   593   1 H        2.176    17.659    -0.024
   594   1 H        2.342     7.513    -0.010
   595  15 P        3.234     8.738    -0.001
   596   8 O        2.196    24.577    -0.003
   597   8 O        2.208    24.441    -0.003
   598   8 O        2.670     5.080    -0.001
   599   6 C        3.053     0.006    -0.000
   600   6 C        3.426     0.046    -0.000
   601   8 O        3.171     0.631    -0.000
   602   6 C        3.206     0.479    -0.000
   603   8 O        2.400     9.882    -0.001
   604   6 C        3.076     1.353    -0.000
   605   6 C        3.570     0.044    -0.000
   606   7 N        3.626     0.043    -0.000
   607   6 C        3.469     2.008    -0.000
   608   8 O        2.537     9.600    -0.001
   609   7 N        3.134     1.930    -0.001
   610   6 C        3.210     3.685    -0.000
   611   8 O        2.402    17.824    -0.002
   612   6 C        3.494     1.994    -0.000
   613   6 C        2.670     2.904    -0.000
   614   6 C        3.411     2.053    -0.000
   615   1 H        2.357     3.832    -0.005
   616   1 H        2.670     0.000    -0.000
   617   1 H        2.272    12.547    -0.017
   618   1 H        2.155    16.236    -0.022
   619   1 H        2.052    14.159    -0.019
   620   1 H        2.211    14.782    -0.020
   621   1 H        2.159    16.739    -0.022
   622   1 H        2.392     8.150    -0.011
   623   1 H        3.151     1.210    -0.002
   624   1 H        2.063    19.081    -0.025
   625   1 H        2.119    12.849    -0.017
   626   1 H        2.144    11.991    -0.016
   627   1 H        2.451     1.163    -0.002

 total SASA / Å² :     4010.445

     #   Z          covCN         q      C6AA      α(0)
     1   8 O        1.652    -0.437    21.583     6.271
     2   6 C        3.669     0.066    19.706     6.364
     3   6 C        3.752     0.082    19.272     6.260
     4   8 O        1.696    -0.264    18.375     5.787
     5   6 C        3.988     0.117    18.596     6.127
     6   8 O        1.661    -0.298    18.980     5.881
     7   6 C        3.804    -0.099    22.392     6.737
     8   6 C        3.689     0.150    18.345     6.130
     9   7 N        2.785    -0.047    22.148     6.990
    10   6 C        3.100     0.118    25.285     8.240
    11   7 N        1.862    -0.192    25.980     7.555
    12   6 C        3.158     0.042    26.746     8.455
    13   6 C        2.904     0.180    24.147     8.057
    14   7 N        2.687    -0.188    25.084     7.438
    15   7 N        1.889    -0.213    26.473     7.628
    16   6 C        2.938     0.135    25.047     8.208
    17   7 N        1.823    -0.181    25.721     7.515
    18   6 C        3.083     0.134    24.985     8.194
    19   1 H        0.925     0.074     2.039     2.233
    20   1 H        0.925     0.081     1.966     2.192
    21   1 H        0.924     0.107     1.725     2.054
    22   1 H        0.924     0.060     2.195     2.317
    23   1 H        0.925     0.088     1.902     2.157
    24   1 H        0.924     0.106     1.729     2.056
    25   1 H        0.925     0.138     1.476     1.900
    26   1 H        0.926     0.103     1.754     2.071
    27   1 H        0.860     0.270     0.811     1.410
    28   1 H        0.860     0.270     0.811     1.411
    29   1 H        0.926     0.144     1.436     1.874
    30   1 H        0.805     0.370     0.543     1.157
    31  15 P        3.695     0.586   136.765    21.008
    32   8 O        0.808    -0.534    24.587     6.647
    33   8 O        0.808    -0.554    25.047     6.709
    34   8 O        1.657    -0.361    20.114     6.054
    35   6 C        3.883     0.098    18.926     6.185
    36   6 C        3.857     0.088    19.086     6.213
    37   8 O        1.711    -0.281    18.666     5.833
    38   6 C        4.147     0.130    18.397     6.092
    39   8 O        1.663    -0.290    18.837     5.859
    40   6 C        3.837    -0.113    22.629     6.768
    41   6 C        3.792     0.156    18.089     6.057
    42   7 N        2.864    -0.067    22.529     7.050
    43   6 C        3.059     0.130    25.098     8.216
    44   7 N        1.873    -0.205    26.289     7.600
    45   6 C        3.212     0.003    27.298     8.503
    46   6 C        2.782     0.277    22.321     7.738
    47   8 O        0.861    -0.398    21.647     6.238
    48   7 N        2.725    -0.166    24.582     7.364
    49   6 C        2.922     0.226    23.271     7.911
    50   7 N        2.667    -0.193    25.194     7.455
    51   7 N        1.855    -0.215    26.520     7.633
    52   6 C        3.109     0.133    24.960     8.185
    53   1 H        0.925     0.057     2.235     2.338
    54   1 H        0.925     0.060     2.200     2.319
    55   1 H        0.924     0.084     1.939     2.178
    56   1 H        0.925     0.045     2.389     2.417
    57   1 H        0.925     0.094     1.843     2.123
    58   1 H        0.924     0.117     1.635     1.999
    59   1 H        0.925     0.134     1.503     1.917
    60   1 H        0.926     0.095     1.830     2.115
    61   1 H        0.860     0.256     0.859     1.452
    62   1 H        0.860     0.280     0.775     1.379
    63   1 H        0.860     0.306     0.696     1.307
    64  15 P        3.829     0.606   136.031    20.951
    65   8 O        0.808    -0.555    25.057     6.710
    66   8 O        0.808    -0.542    24.773     6.672
    67   8 O        1.655    -0.332    19.580     5.973
    68   6 C        3.903     0.086    19.108     6.213
    69   6 C        3.839     0.094    19.001     6.201
    70   8 O        1.696    -0.308    19.132     5.905
    71   6 C        4.138     0.113    18.655     6.134
    72   8 O        1.658    -0.288    18.799     5.853
    73   6 C        3.832    -0.107    22.509     6.750
    74   6 C        3.740     0.149    18.258     6.097
    75   7 N        2.740    -0.067    22.532     7.050
    76   6 C        2.758     0.326    21.460     7.586
    77   8 O        0.864    -0.456    22.821     6.405
    78   7 N        1.892    -0.300    28.620     7.931
    79   6 C        2.889     0.192    23.913     8.017
    80   7 N        2.692    -0.195    25.230     7.460
    81   6 C        2.916    -0.081    30.029     8.986
    82   6 C        2.862     0.051    26.843     8.492
    83   1 H        0.925     0.049     2.331     2.388
    84   1 H        0.924     0.071     2.077     2.254
    85   1 H        0.924     0.075     2.037     2.232
    86   1 H        0.925     0.062     2.175     2.306
    87   1 H        0.925     0.093     1.850     2.127
    88   1 H        0.924     0.119     1.620     1.990
    89   1 H        0.925     0.134     1.505     1.919
    90   1 H        0.860     0.277     0.785     1.388
    91   1 H        0.860     0.269     0.813     1.412
    92   1 H        0.926     0.125     1.577     1.964
    93   1 H        0.926     0.102     1.763     2.076
    94  15 P        3.846     0.599   136.284    20.971
    95   8 O        0.808    -0.574    25.516     6.771
    96   8 O        0.808    -0.566    25.333     6.747
    97   8 O        1.657    -0.343    19.786     6.005
    98   6 C        3.881     0.092    19.021     6.201
    99   6 C        3.771     0.084    19.211     6.246
   100   8 O        1.699    -0.297    18.944     5.876
   101   6 C        4.005     0.119    18.566     6.121
   102   8 O        1.656    -0.336    19.652     5.984
   103   6 C        3.824    -0.102    22.423     6.738
   104   6 C        3.697     0.145    18.398     6.135
   105   7 N        2.861    -0.063    22.451     7.037
   106   6 C        3.133     0.110    25.370     8.245
   107   7 N        1.863    -0.200    26.171     7.583
   108   6 C        3.268     0.018    26.345     8.281
   109   6 C        2.910     0.165    24.453     8.109
   110   7 N        2.675    -0.179    24.883     7.409
   111   7 N        1.864    -0.247    27.300     7.745
   112   6 C        2.901     0.125    25.267     8.242
   113   7 N        1.824    -0.195    26.053     7.563
   114   6 C        3.053     0.115    25.412     8.267
   115   1 H        0.925     0.053     2.280     2.361
   116   1 H        0.926     0.065     2.143     2.289
   117   1 H        0.924     0.077     2.011     2.218
   118   1 H        0.925     0.043     2.407     2.426
   119   1 H        0.925     0.094     1.845     2.124
   120   1 H        0.924     0.112     1.678     2.026
   121   1 H        0.925     0.123     1.586     1.969
   122   1 H        0.926     0.097     1.808     2.103
   123   1 H        0.860     0.281     0.771     1.376
   124   1 H        0.860     0.278     0.782     1.385
   125   1 H        0.926     0.132     1.521     1.929
   126  15 P        3.780     0.587   136.708    21.003
   127   8 O        0.808    -0.539    24.697     6.662
   128   8 O        0.808    -0.552    25.005     6.703
   129   8 O        1.661    -0.325    19.447     5.953
   130   6 C        3.965     0.098    18.893     6.176
   131   6 C        3.841     0.100    18.915     6.187
   132   8 O        1.707    -0.307    19.109     5.902
   133   6 C        3.989     0.124    18.494     6.110
   134   8 O        1.661    -0.330    19.539     5.967
   135   6 C        3.862    -0.099    22.336     6.721
   136   6 C        3.732     0.155    18.174     6.085
   137   7 N        2.823    -0.017    21.576     6.899
   138   6 C        3.192     0.105    25.221     8.190
   139   7 N        1.885    -0.181    25.735     7.520
   140   6 C        3.190     0.016    27.166     8.501
   141   6 C        2.885     0.152    24.708     8.149
   142   7 N        2.658    -0.219    25.777     7.541
   143   7 N        1.868    -0.220    26.638     7.650
   144   6 C        2.885     0.130    25.149     8.222
   145   7 N        1.828    -0.158    25.207     7.440
   146   6 C        3.163     0.109    25.288     8.219
   147   1 H        0.925     0.047     2.353     2.399
   148   1 H        0.925     0.065     2.137     2.286
   149   1 H        0.924     0.074     2.047     2.238
   150   1 H        0.924     0.037     2.490     2.468
   151   1 H        0.926     0.094     1.839     2.121
   152   1 H        0.924     0.094     1.839     2.121
   153   1 H        0.925     0.120     1.617     1.988
   154   1 H        0.926     0.104     1.751     2.069
   155   1 H        0.860     0.274     0.796     1.398
   156   1 H        0.860     0.255     0.863     1.455
   157   1 H        0.926     0.139     1.470     1.896
   158  15 P        3.743     0.612   135.822    20.935
   159   8 O        0.808    -0.541    24.736     6.667
   160   8 O        0.808    -0.522    24.311     6.609
   161   8 O        1.660    -0.301    19.020     5.888
   162   6 C        3.947     0.090    19.036     6.200
   163   6 C        3.830     0.078    19.265     6.245
   164   8 O        1.702    -0.285    18.733     5.844
   165   6 C        3.998     0.105    18.782     6.157
   166   8 O        1.656    -0.306    19.113     5.902
   167   6 C        3.833    -0.104    22.453     6.742
   168   6 C        3.748     0.153    18.187     6.083
   169   7 N        2.739    -0.057    22.345     7.021
   170   6 C        2.697     0.310    21.733     7.630
   171   8 O        0.857    -0.374    21.172     6.169
   172   7 N        2.705    -0.146    24.165     7.301
   173   6 C        2.757     0.282    22.216     7.719
   174   8 O        0.861    -0.342    20.548     6.078
   175   6 C        2.961    -0.005    28.140     8.701
   176   6 C        3.765    -0.150    23.448     6.902
   177   6 C        2.852     0.042    27.044     8.523
   178   1 H        0.925     0.063     2.168     2.303
   179   1 H        0.924     0.077     2.012     2.218
   180   1 H        0.924     0.089     1.888     2.149
   181   1 H        0.925     0.070     2.091     2.261
   182   1 H        0.925     0.101     1.773     2.082
   183   1 H        0.924     0.123     1.590     1.972
   184   1 H        0.925     0.146     1.421     1.864
   185   1 H        0.860     0.277     0.787     1.390
   186   1 H        0.925     0.143     1.440     1.876
   187   1 H        0.925     0.180     1.206     1.717
   188   1 H        0.924     0.103     1.759     2.074
   189   1 H        0.926     0.123     1.590     1.972
   190  15 P        3.703     0.600   136.262    20.969
   191   8 O        0.808    -0.546    24.862     6.684
   192   8 O        0.808    -0.546    24.861     6.684
   193   8 O        1.658    -0.343    19.774     6.003
   194   6 C        3.888     0.087    19.085     6.211
   195   6 C        3.939     0.090    19.031     6.199
   196   8 O        1.710    -0.269    18.458     5.801
   197   6 C        4.075     0.121    18.541     6.116
   198   8 O        1.660    -0.285    18.755     5.846
   199   6 C        3.935    -0.104    22.421     6.729
   200   6 C        3.738     0.146    18.307     6.105
   201   7 N        2.745    -0.044    22.083     6.979
   202   6 C        2.739     0.330    21.387     7.572
   203   8 O        0.865    -0.424    22.171     6.313
   204   7 N        1.842    -0.324    29.248     8.015
   205   6 C        2.864     0.171    24.319     8.083
   206   7 N        2.656    -0.192    25.161     7.450
   207   6 C        2.913    -0.083    30.077     8.993
   208   6 C        2.863     0.047    26.939     8.508
   209   1 H        0.924     0.064     2.153     2.295
   210   1 H        0.925     0.066     2.128     2.281
   211   1 H        0.924     0.085     1.927     2.171
   212   1 H        0.924     0.049     2.336     2.390
   213   1 H        0.925     0.094     1.838     2.120
   214   1 H        0.924     0.101     1.773     2.082
   215   1 H        0.925     0.135     1.497     1.914
   216   1 H        0.860     0.257     0.858     1.451
   217   1 H        0.860     0.270     0.809     1.409
   218   1 H        0.926     0.149     1.397     1.848
   219   1 H        0.926     0.123     1.588     1.970
   220  15 P        3.999     0.644   134.688    20.847
   221   8 O        0.808    -0.557    25.112     6.717
   222   8 O        0.808    -0.522    24.295     6.607
   223   8 O        1.659    -0.319    19.342     5.937
   224   6 C        4.100     0.087    19.067     6.202
   225   6 C        3.820     0.078    19.269     6.247
   226   8 O        1.705    -0.280    18.655     5.831
   227   6 C        4.115     0.127    18.450     6.101
   228   8 O        1.661    -0.281    18.685     5.835
   229   6 C        3.865    -0.100    22.361     6.725
   230   6 C        3.711     0.158    18.174     6.092
   231   7 N        2.737    -0.053    22.268     7.008
   232   6 C        2.741     0.297    21.954     7.672
   233   8 O        0.857    -0.411    21.911     6.276
   234   7 N        1.877    -0.333    29.489     8.050
   235   6 C        2.892     0.180    24.150     8.057
   236   7 N        2.694    -0.225    25.912     7.560
   237   6 C        2.914    -0.087    30.183     9.009
   238   6 C        2.877     0.042    27.054     8.527
   239   1 H        0.924     0.052     2.290     2.367
   240   1 H        0.924     0.079     1.985     2.203
   241   1 H        0.924     0.093     1.849     2.127
   242   1 H        0.925     0.041     2.440     2.443
   243   1 H        0.925     0.076     2.020     2.223
   244   1 H        0.924     0.100     1.789     2.092
   245   1 H        0.925     0.126     1.567     1.958
   246   1 H        0.860     0.235     0.944     1.522
   247   1 H        0.860     0.256     0.859     1.452
   248   1 H        0.926     0.137     1.486     1.906
   249   1 H        0.926     0.115     1.655     2.012
   250  15 P        3.873     0.635   135.011    20.872
   251   8 O        0.808    -0.570    25.417     6.758
   252   8 O        0.808    -0.528    24.436     6.626
   253   8 O        1.655    -0.323    19.419     5.949
   254   6 C        3.916     0.084    19.127     6.216
   255   6 C        3.742     0.079    19.330     6.272
   256   8 O        1.693    -0.283    18.697     5.838
   257   6 C        4.000     0.115    18.628     6.132
   258   8 O        1.656    -0.319    19.343     5.937
   259   6 C        3.803    -0.103    22.471     6.749
   260   6 C        3.705     0.153    18.265     6.110
   261   7 N        2.741    -0.040    22.008     6.968
   262   6 C        2.748     0.318    21.605     7.611
   263   8 O        0.862    -0.386    21.393     6.201
   264   7 N        1.862    -0.242    27.163     7.725
   265   6 C        2.865     0.171    24.319     8.083
   266   7 N        2.668    -0.204    25.430     7.490
   267   6 C        2.903    -0.085    30.137     9.001
   268   6 C        2.857     0.040    27.102     8.533
   269   1 H        0.925     0.062     2.175     2.306
   270   1 H        0.924     0.046     2.376     2.410
   271   1 H        0.924     0.105     1.741     2.064
   272   1 H        0.925     0.068     2.111     2.272
   273   1 H        0.925     0.086     1.923     2.168
   274   1 H        0.924     0.110     1.698     2.038
   275   1 H        0.925     0.132     1.516     1.926
   276   1 H        0.860     0.234     0.949     1.526
   277   1 H        0.860     0.241     0.918     1.501
   278   1 H        0.926     0.119     1.617     1.989
   279   1 H        0.926     0.110     1.699     2.038
   280  15 P        3.703     0.582   136.892    21.017
   281   8 O        0.808    -0.537    24.636     6.653
   282   8 O        0.808    -0.538    24.676     6.659
   283   8 O        1.648    -0.329    19.526     5.965
   284   6 C        3.853     0.079    19.232     6.237
   285   6 C        3.951     0.090    19.028     6.198
   286   8 O        1.706    -0.278    18.609     5.824
   287   6 C        4.089     0.112    18.672     6.138
   288   8 O        1.658    -0.308    19.149     5.907
   289   6 C        3.917    -0.102    22.374     6.723
   290   6 C        3.796     0.168    17.913     6.027
   291   7 N        2.738    -0.048    22.164     6.992
   292   6 C        2.766     0.340    21.221     7.544
   293   8 O        0.865    -0.413    21.944     6.281
   294   7 N        1.884    -0.230    26.883     7.686
   295   6 C        2.900     0.195    23.855     8.008
   296   7 N        2.699    -0.184    24.983     7.424
   297   6 C        2.925    -0.086    30.151     9.005
   298   6 C        2.884     0.040    27.091     8.533
   299   1 H        0.925     0.066     2.135     2.285
   300   1 H        0.924     0.071     2.072     2.251
   301   1 H        0.924     0.096     1.821     2.110
   302   1 H        0.924     0.072     2.062     2.246
   303   1 H        0.925     0.099     1.795     2.095
   304   1 H        0.924     0.108     1.711     2.045
   305   1 H        0.925     0.117     1.639     2.002
   306   1 H        0.860     0.288     0.750     1.357
   307   1 H        0.860     0.268     0.818     1.417
   308   1 H        0.926     0.123     1.588     1.970
   309   1 H        0.926     0.105     1.739     2.062
   310  15 P        3.874     0.641   134.775    20.854
   311   8 O        0.808    -0.538    24.666     6.658
   312   8 O        0.808    -0.535    24.607     6.650
   313   8 O        1.658    -0.312    19.221     5.918
   314   6 C        3.958     0.090    19.025     6.198
   315   6 C        3.760     0.083    19.242     6.253
   316   8 O        1.694    -0.290    18.827     5.858
   317   6 C        3.923     0.106    18.783     6.159
   318   8 O        1.648    -0.318    19.325     5.934
   319   6 C        3.830    -0.095    22.284     6.717
   320   6 C        3.699     0.154    18.252     6.110
   321   7 N        2.744    -0.038    21.977     6.963
   322   6 C        2.826     0.329    21.420     7.584
   323   8 O        0.865    -0.424    22.154     6.311
   324   7 N        1.935    -0.255    27.484     7.774
   325   6 C        2.969     0.199    23.778     7.998
   326   7 N        2.747    -0.194    25.208     7.457
   327   6 C        2.916    -0.074    29.842     8.958
   328   6 C        2.875     0.046    26.966     8.513
   329   1 H        0.925     0.075     2.029     2.228
   330   1 H        0.924     0.065     2.147     2.291
   331   1 H        0.924     0.090     1.884     2.146
   332   1 H        0.924     0.067     2.115     2.274
   333   1 H        0.925     0.094     1.842     2.123
   334   1 H        0.924     0.101     1.778     2.086
   335   1 H        0.925     0.121     1.606     1.982
   336   1 H        0.860     0.280     0.774     1.379
   337   1 H        0.860     0.273     0.800     1.401
   338   1 H        0.926     0.150     1.390     1.844
   339   1 H        0.926     0.117     1.641     2.003
   340  15 P        3.635     0.594   136.454    20.984
   341   8 O        0.808    -0.518    24.206     6.595
   342   8 O        0.808    -0.488    23.545     6.504
   343   8 O        1.653    -0.343    19.772     6.003
   344   6 C        3.872     0.079    19.227     6.235
   345   6 C        3.840     0.086    19.136     6.223
   346   8 O        1.703    -0.280    18.655     5.831
   347   6 C        4.025     0.136    18.309     6.078
   348   8 O        1.662    -0.309    19.165     5.910
   349   6 C        3.874    -0.088    22.128     6.689
   350   6 C        3.722     0.153    18.223     6.096
   351   7 N        2.734    -0.022    21.668     6.913
   352   6 C        2.757     0.335    21.304     7.558
   353   8 O        0.860    -0.434    22.379     6.343
   354   7 N        1.849    -0.235    26.993     7.700
   355   6 C        2.876     0.205    23.654     7.973
   356   7 N        2.683    -0.198    25.295     7.470
   357   6 C        2.936    -0.059    29.478     8.904
   358   6 C        2.867     0.054    26.787     8.484
   359   1 H        0.924     0.066     2.125     2.280
   360   1 H        0.925     0.075     2.028     2.227
   361   1 H        0.924     0.074     2.046     2.237
   362   1 H        0.924     0.034     2.527     2.486
   363   1 H        0.924     0.088     1.903     2.157
   364   1 H        0.924     0.094     1.836     2.119
   365   1 H        0.925     0.130     1.536     1.938
   366   1 H        0.860     0.275     0.792     1.394
   367   1 H        0.860     0.284     0.762     1.367
   368   1 H        0.926     0.152     1.378     1.836
   369   1 H        0.926     0.130     1.536     1.938
   370  15 P        3.855     0.609   135.939    20.944
   371   8 O        0.808    -0.511    24.054     6.574
   372   8 O        0.808    -0.556    25.084     6.714
   373   8 O        1.653    -0.296    18.947     5.876
   374   6 C        4.021     0.083    19.125     6.212
   375   6 C        3.808     0.083    19.197     6.237
   376   8 O        1.700    -0.281    18.666     5.833
   377   6 C        3.918     0.116    18.628     6.134
   378   8 O        1.660    -0.319    19.345     5.938
   379   6 C        3.838    -0.113    22.626     6.767
   380   6 C        3.739     0.145    18.313     6.106
   381   7 N        2.806    -0.004    21.338     6.861
   382   6 C        3.119     0.122    25.155     8.215
   383   7 N        1.906    -0.191    25.955     7.553
   384   6 C        3.121     0.043    26.864     8.488
   385   6 C        2.765     0.279    22.278     7.730
   386   8 O        0.866    -0.374    21.165     6.168
   387   7 N        2.709    -0.173    24.732     7.386
   388   6 C        2.815     0.221    23.355     7.918
   389   7 N        2.681    -0.164    24.553     7.359
   390   7 N        1.873    -0.217    26.572     7.641
   391   6 C        3.146     0.138    24.755     8.140
   392   1 H        0.924     0.070     2.089     2.260
   393   1 H        0.925     0.048     2.340     2.392
   394   1 H        0.924     0.110     1.695     2.036
   395   1 H        0.925     0.066     2.126     2.280
   396   1 H        0.925     0.098     1.802     2.099
   397   1 H        0.924     0.124     1.583     1.968
   398   1 H        0.925     0.164     1.302     1.785
   399   1 H        0.926     0.105     1.737     2.061
   400   1 H        0.860     0.251     0.879     1.469
   401   1 H        0.860     0.280     0.775     1.379
   402   1 H        0.860     0.334     0.620     1.233
   403  15 P        3.656     0.576   137.092    21.033
   404   8 O        0.808    -0.541    24.743     6.668
   405   8 O        0.808    -0.529    24.452     6.629
   406   8 O        1.658    -0.298    18.981     5.881
   407   6 C        3.919     0.088    19.065     6.206
   408   6 C        3.865     0.091    19.045     6.206
   409   8 O        1.700    -0.310    19.168     5.911
   410   6 C        3.957     0.118    18.588     6.126
   411   8 O        1.658    -0.330    19.535     5.967
   412   6 C        3.896    -0.103    22.401     6.728
   413   6 C        3.700     0.133    18.576     6.164
   414   7 N        2.883    -0.048    22.164     6.992
   415   6 C        3.161     0.125    24.963     8.167
   416   7 N        1.905    -0.190    25.932     7.550
   417   6 C        3.267     0.021    26.298     8.274
   418   6 C        2.772     0.253    22.752     7.812
   419   8 O        0.856    -0.406    21.795     6.259
   420   7 N        2.725    -0.158    24.405     7.337
   421   6 C        2.868     0.230    23.185     7.893
   422   7 N        2.680    -0.191    25.141     7.447
   423   7 N        1.859    -0.215    26.517     7.633
   424   6 C        3.130     0.124    25.091     8.201
   425   1 H        0.925     0.052     2.295     2.369
   426   1 H        0.925     0.065     2.137     2.286
   427   1 H        0.924     0.088     1.902     2.157
   428   1 H        0.925     0.053     2.278     2.360
   429   1 H        0.925     0.087     1.905     2.158
   430   1 H        0.924     0.119     1.620     1.991
   431   1 H        0.925     0.155     1.360     1.823
   432   1 H        0.926     0.092     1.860     2.133
   433   1 H        0.860     0.256     0.861     1.453
   434   1 H        0.860     0.276     0.790     1.392
   435   1 H        0.860     0.314     0.673     1.285
   436  15 P        3.653     0.586   136.733    21.005
   437   8 O        0.808    -0.534    24.587     6.647
   438   8 O        0.808    -0.529    24.462     6.630
   439   8 O        1.660    -0.337    19.663     5.986
   440   6 C        3.878     0.101    18.876     6.177
   441   6 C        3.846     0.083    19.166     6.227
   442   8 O        1.706    -0.297    18.941     5.876
   443   6 C        3.916     0.122    18.547     6.121
   444   8 O        1.658    -0.326    19.472     5.957
   445   6 C        3.834    -0.096    22.299     6.718
   446   6 C        3.776     0.161    18.029     6.050
   447   7 N        2.868    -0.019    21.610     6.904
   448   6 C        3.377     0.103    22.638     7.422
   449   7 N        1.858    -0.163    25.327     7.459
   450   6 C        3.417     0.020    23.356     7.412
   451   6 C        2.920     0.150    24.749     8.158
   452   7 N        2.683    -0.190    25.112     7.443
   453   7 N        1.880    -0.235    27.014     7.705
   454   6 C        2.909     0.129    25.176     8.228
   455   7 N        1.826    -0.176    25.616     7.500
   456   6 C        3.190     0.126    24.790     8.121
   457   1 H        0.925     0.058     2.218     2.329
   458   1 H        0.925     0.064     2.151     2.293
   459   1 H        0.924     0.085     1.927     2.171
   460   1 H        0.924     0.060     2.201     2.320
   461   1 H        0.924     0.082     1.955     2.186
   462   1 H        0.925     0.099     1.796     2.096
   463   1 H        0.924     0.102     1.765     2.078
   464   1 H        0.926     0.110     1.692     2.034
   465   1 H        0.860     0.281     0.772     1.376
   466   1 H        0.860     0.266     0.824     1.422
   467   1 H        0.926     0.130     1.533     1.936
   468  15 P        3.675     0.580   136.982    21.024
   469   8 O        0.808    -0.527    24.419     6.624
   470   8 O        0.808    -0.534    24.569     6.644
   471   8 O        1.662    -0.321    19.383     5.943
   472   6 C        3.943     0.099    18.895     6.177
   473   6 C        3.780     0.087    19.166     6.237
   474   8 O        1.700    -0.277    18.602     5.823
   475   6 C        3.957     0.101    18.857     6.170
   476   8 O        1.651    -0.302    19.039     5.890
   477   6 C        3.839    -0.094    22.258     6.712
   478   6 C        3.715     0.150    18.277     6.108
   479   7 N        2.743    -0.029    21.811     6.936
   480   6 C        2.702     0.312    21.704     7.625
   481   8 O        0.861    -0.409    21.861     6.269
   482   7 N        2.699    -0.158    24.418     7.339
   483   6 C        2.757     0.273    22.393     7.749
   484   8 O        0.860    -0.350    20.697     6.100
   485   6 C        2.946    -0.008    28.228     8.714
   486   6 C        3.755    -0.145    23.352     6.891
   487   6 C        2.837     0.039    27.121     8.534
   488   1 H        0.924     0.043     2.414     2.430
   489   1 H        0.925     0.066     2.129     2.282
   490   1 H        0.924     0.091     1.871     2.139
   491   1 H        0.924     0.069     2.097     2.264
   492   1 H        0.925     0.098     1.799     2.097
   493   1 H        0.924     0.113     1.672     2.022
   494   1 H        0.925     0.154     1.363     1.826
   495   1 H        0.860     0.273     0.800     1.401
   496   1 H        0.925     0.147     1.409     1.856
   497   1 H        0.925     0.139     1.468     1.894
   498   1 H        0.924     0.083     1.949     2.183
   499   1 H        0.926     0.127     1.556     1.951
   500  15 P        3.781     0.597   136.343    20.975
   501   8 O        0.808    -0.549    24.915     6.691
   502   8 O        0.808    -0.528    24.447     6.628
   503   8 O        1.661    -0.333    19.596     5.976
   504   6 C        3.998     0.097    18.916     6.179
   505   6 C        3.895     0.079    19.220     6.232
   506   8 O        1.700    -0.272    18.508     5.808
   507   6 C        3.988     0.112    18.683     6.141
   508   8 O        1.660    -0.296    18.940     5.875
   509   6 C        3.873    -0.110    22.541     6.751
   510   6 C        3.754     0.144    18.309     6.101
   511   7 N        2.738    -0.034    21.900     6.950
   512   6 C        2.712     0.315    21.645     7.616
   513   8 O        0.861    -0.398    21.633     6.236
   514   7 N        2.718    -0.137    23.976     7.272
   515   6 C        2.767     0.275    22.356     7.743
   516   8 O        0.861    -0.402    21.714     6.248
   517   6 C        2.965    -0.004    28.122     8.698
   518   6 C        3.765    -0.151    23.465     6.904
   519   6 C        2.850     0.034    27.222     8.551
   520   1 H        0.924     0.048     2.347     2.396
   521   1 H        0.924     0.061     2.182     2.310
   522   1 H        0.924     0.089     1.885     2.147
   523   1 H        0.925     0.054     2.270     2.356
   524   1 H        0.925     0.091     1.871     2.139
   525   1 H        0.924     0.113     1.669     2.020
   526   1 H        0.924     0.153     1.371     1.831
   527   1 H        0.861     0.265     0.827     1.424
   528   1 H        0.924     0.137     1.484     1.905
   529   1 H        0.924     0.180     1.208     1.719
   530   1 H        0.924     0.108     1.714     2.047
   531   1 H        0.926     0.154     1.368     1.829
   532  15 P        3.742     0.603   136.139    20.959
   533   8 O        0.808    -0.554    25.040     6.708
   534   8 O        0.808    -0.534    24.571     6.645
   535   8 O        1.661    -0.305    19.099     5.900
   536   6 C        3.928     0.085    19.105     6.212
   537   6 C        3.855     0.087    19.112     6.218
   538   8 O        1.699    -0.299    18.969     5.880
   539   6 C        4.032     0.119    18.567     6.121
   540   8 O        1.659    -0.313    19.232     5.920
   541   6 C        3.845    -0.105    22.463     6.742
   542   6 C        3.761     0.141    18.351     6.107
   543   7 N        2.817    -0.015    21.534     6.892
   544   6 C        3.237     0.117    24.618     8.049
   545   7 N        1.868    -0.183    25.777     7.526
   546   6 C        3.232     0.023    26.673     8.384
   547   6 C        2.775     0.273    22.379     7.748
   548   8 O        0.867    -0.395    21.581     6.229
   549   7 N        2.744    -0.169    24.647     7.373
   550   6 C        2.834     0.236    23.064     7.870
[...]
   357   6 C    3.750 --   358 C    1.528   355 C    1.138   368 H    0.940
   358   6 C    3.903 --   357 C    1.528   351 N    1.289   369 H    0.937
   359   1 H    0.994 --   344 C    0.965
   360   1 H    0.994 --   344 C    0.960
   361   1 H    0.983 --   345 C    0.946
   362   1 H    0.993 --   347 C    0.948
   363   1 H    0.992 --   349 C    0.965
   364   1 H    0.988 --   349 C    0.963
   365   1 H    0.968 --   350 C    0.934
   366   1 H    0.920 --   356 N    0.902
   367   1 H    0.918 --   356 N    0.898
   368   1 H    0.971 --   357 C    0.940
   369   1 H    0.969 --   358 C    0.937
   370  15 P    5.606 --   371 O    1.660   372 O    1.642   373 O    1.162
                           348 O    1.094
   371   8 O    1.828 --   370 P    1.660
   372   8 O    1.820 --   370 P    1.642
   373   8 O    2.289 --   370 P    1.162   374 C    0.934
   374   6 C    3.927 --   375 C    0.985   393 H    0.967   392 H    0.966
                           373 O    0.934
   375   6 C    3.925 --   374 C    0.985   376 O    0.981   377 C    0.941
                           394 H    0.939
   376   8 O    2.073 --   375 C    0.981   380 C    0.964
   377   6 C    3.904 --   379 C    0.972   378 O    0.959   395 H    0.956
                           375 C    0.941
   378   8 O    2.273 --   403 P    1.102   377 C    0.959
   379   6 C    3.969 --   380 C    0.987   377 C    0.972   397 H    0.961
                           396 H    0.960
   380   6 C    3.897 --   379 C    0.987   376 O    0.964   381 N    0.953
                           398 H    0.923
   381   7 N    3.625 --   382 C    1.214   391 C    1.202   380 C    0.953
   382   6 C    3.793 --   383 N    1.486   381 N    1.214   399 H    0.957
   383   7 N    2.986 --   382 C    1.486   384 C    1.312
   384   6 C    3.795 --   383 N    1.312   391 C    1.240   385 C    1.050
   385   6 C    3.940 --   386 O    1.686   387 N    1.120   384 C    1.050
   386   8 O    2.014 --   385 C    1.686   387 N    0.137
   387   7 N    3.508 --   388 C    1.171   385 C    1.120   400 H    0.858
                           386 O    0.137
   388   6 C    3.952 --   389 N    1.436   390 N    1.283   387 N    1.171
   389   7 N    3.387 --   388 C    1.436   401 H    0.875   402 H    0.868
   390   7 N    2.832 --   391 C    1.296   388 C    1.283
   391   6 C    3.897 --   390 N    1.296   384 C    1.240   381 N    1.202
   392   1 H    0.992 --   374 C    0.966
   393   1 H    0.997 --   374 C    0.967
   394   1 H    0.972 --   375 C    0.939
   395   1 H    0.993 --   377 C    0.956
   396   1 H    0.990 --   379 C    0.960
   397   1 H    0.982 --   379 C    0.961
   398   1 H    0.966 --   380 C    0.923
   399   1 H    0.987 --   382 C    0.957
   400   1 H    0.936 --   387 N    0.858
   401   1 H    0.921 --   389 N    0.875
   402   1 H    0.887 --   389 N    0.868
   403  15 P    5.636 --   405 O    1.719   404 O    1.602   406 O    1.155
                           378 O    1.102
   404   8 O    1.775 --   403 P    1.602
   405   8 O    1.897 --   403 P    1.719
   406   8 O    2.296 --   403 P    1.155   407 C    0.940
   407   6 C    3.922 --   408 C    0.987   425 H    0.965   426 H    0.955
                           406 O    0.940
   408   6 C    3.950 --   407 C    0.987   409 O    0.970   410 C    0.968
                           427 H    0.945
   409   8 O    2.079 --   413 C    0.977   408 C    0.970
   410   6 C    3.923 --   412 C    0.985   408 C    0.968   428 H    0.955
                           411 O    0.939
   411   8 O    2.278 --   436 P    1.117   410 C    0.939
   412   6 C    3.975 --   410 C    0.985   413 C    0.977   429 H    0.964
                           430 H    0.961
   413   6 C    3.905 --   412 C    0.977   409 O    0.977   431 H    0.938
                           414 N    0.934
   414   7 N    3.594 --   415 C    1.226   424 C    1.160   413 C    0.934
   415   6 C    3.863 --   416 N    1.566   414 N    1.226   432 H    0.952
   416   7 N    2.984 --   415 C    1.566   417 C    1.222
   417   6 C    3.805 --   424 C    1.261   416 N    1.222   418 C    1.122
   418   6 C    3.951 --   419 O    1.586   420 N    1.150   417 C    1.122
   419   8 O    1.898 --   418 C    1.586   420 N    0.134
   420   7 N    3.518 --   421 C    1.162   418 C    1.150   433 H    0.857
                           419 O    0.134
   421   6 C    3.958 --   422 N    1.424   423 N    1.300   420 N    1.162
   422   7 N    3.393 --   421 C    1.424   435 H    0.880   434 H    0.862
   423   7 N    2.870 --   424 C    1.308   421 C    1.300
   424   6 C    3.906 --   423 N    1.308   417 C    1.261   414 N    1.160
   425   1 H    0.993 --   407 C    0.965
   426   1 H    0.991 --   407 C    0.955
   427   1 H    0.989 --   408 C    0.945
   428   1 H    0.996 --   410 C    0.955
   429   1 H    0.992 --   412 C    0.964
   430   1 H    0.984 --   412 C    0.961
   431   1 H    0.973 --   413 C    0.938
   432   1 H    0.990 --   415 C    0.952
   433   1 H    0.934 --   420 N    0.857
   434   1 H    0.923 --   422 N    0.862
   435   1 H    0.900 --   422 N    0.880
   436  15 P    5.667 --   437 O    1.705   438 O    1.691   411 O    1.117
                           439 O    1.100
   437   8 O    1.872 --   436 P    1.705
   438   8 O    1.861 --   436 P    1.691
   439   8 O    2.256 --   436 P    1.100   440 C    0.953
   440   6 C    3.919 --   441 C    0.989   457 H    0.963   439 O    0.953
                           458 H    0.951
   441   6 C    3.940 --   440 C    0.989   442 O    0.960   443 C    0.953
                           459 H    0.951
   442   8 O    2.073 --   446 C    0.988   441 C    0.960
   443   6 C    3.910 --   445 C    0.986   460 H    0.961   441 C    0.953
                           444 O    0.933
   444   8 O    2.261 --   468 P    1.124   443 C    0.933
   445   6 C    3.960 --   443 C    0.986   462 H    0.969   461 H    0.967
                           446 C    0.945
   446   6 C    3.923 --   447 N    0.989   442 O    0.988   445 C    0.945
                           463 H    0.937
   447   7 N    3.616 --   456 C    1.186   448 C    1.184   446 C    0.989
   448   6 C    3.913 --   449 N    1.611   447 N    1.184   464 H    0.951
   449   7 N    3.038 --   448 C    1.611   450 C    1.188
   450   6 C    3.904 --   456 C    1.244   451 C    1.243   449 N    1.188
   451   6 C    3.971 --   452 N    1.351   450 C    1.243   453 N    1.239
   452   7 N    3.387 --   451 C    1.351   466 H    0.910   465 H    0.866
   453   7 N    3.026 --   454 C    1.451   451 C    1.239
   454   6 C    3.926 --   453 N    1.451   455 N    1.413   467 H    0.940
   455   7 N    2.956 --   454 C    1.413   456 C    1.270
   456   6 C    3.925 --   455 N    1.270   450 C    1.244   447 N    1.186
   457   1 H    0.991 --   440 C    0.963
   458   1 H    0.990 --   440 C    0.951
   459   1 H    0.985 --   441 C    0.951
   460   1 H    0.995 --   443 C    0.961
   461   1 H    0.993 --   445 C    0.967
   462   1 H    0.989 --   445 C    0.969
   463   1 H    0.985 --   446 C    0.937
   464   1 H    0.986 --   448 C    0.951
   465   1 H    0.920 --   452 N    0.866
   466   1 H    0.929 --   452 N    0.910
   467   1 H    0.981 --   454 C    0.940
   468  15 P    5.691 --   470 O    1.734   469 O    1.682   444 O    1.124
                           471 O    1.100
   469   8 O    1.856 --   468 P    1.682
   470   8 O    1.912 --   468 P    1.734
   471   8 O    2.260 --   468 P    1.100   472 C    0.957
   472   6 C    3.927 --   473 C    0.991   488 H    0.959   471 O    0.957
                           489 H    0.955
   473   6 C    3.945 --   472 C    0.991   474 O    0.982   475 C    0.948
                           490 H    0.946
   474   8 O    2.091 --   473 C    0.982   478 C    0.974
   475   6 C    3.904 --   477 C    0.994   491 H    0.959   473 C    0.948
                           476 O    0.914
   476   8 O    2.306 --   500 P    1.181   475 C    0.914
   477   6 C    3.955 --   475 C    0.994   478 C    0.973   493 H    0.961
                           492 H    0.960
   478   6 C    3.904 --   474 O    0.974   477 C    0.973   479 N    0.969
                           494 H    0.912
   479   7 N    3.495 --   487 C    1.190   480 C    1.088   478 C    0.969
   480   6 C    3.953 --   481 O    1.624   482 N    1.173   479 N    1.088
   481   8 O    1.930 --   480 C    1.624   482 N    0.134
   482   7 N    3.525 --   480 C    1.173   483 C    1.129   495 H    0.853
                           484 O    0.146   481 O    0.134
   483   6 C    3.948 --   484 O    1.690   482 N    1.129   485 C    1.047
   484   8 O    2.023 --   483 C    1.690   482 N    0.146
   485   6 C    3.811 --   487 C    1.561   486 C    1.047   483 C    1.047
   486   6 C    3.915 --   485 C    1.047   498 H    0.976   497 H    0.934
                           496 H    0.904
   487   6 C    3.868 --   485 C    1.561   479 N    1.190   499 H    0.944
   488   1 H    0.991 --   472 C    0.959
   489   1 H    0.993 --   472 C    0.955
   490   1 H    0.984 --   473 C    0.946
   491   1 H    0.993 --   475 C    0.959
   492   1 H    0.990 --   477 C    0.960
   493   1 H    0.986 --   477 C    0.961
   494   1 H    0.949 --   478 C    0.912
   495   1 H    0.925 --   482 N    0.853
   496   1 H    0.936 --   486 C    0.904
   497   1 H    0.959 --   486 C    0.934
   498   1 H    0.990 --   486 C    0.976
   499   1 H    0.983 --   487 C    0.944
   500  15 P    5.640 --   502 O    1.688   501 O    1.632   476 O    1.181
                           503 O    1.083
   501   8 O    1.794 --   500 P    1.632
   502   8 O    1.861 --   500 P    1.688
   503   8 O    2.250 --   500 P    1.083   504 C    0.964
   504   6 C    3.928 --   505 C    0.984   503 O    0.964   520 H    0.960
                           521 H    0.953
   505   6 C    3.946 --   504 C    0.984   506 O    0.964   507 C    0.962
                           522 H    0.950
   506   8 O    2.101 --   510 C    1.001   505 C    0.964
   507   6 C    3.913 --   508 O    0.969   505 C    0.962   523 H    0.954
                           509 C    0.950
   508   8 O    2.312 --   532 P    1.111   507 C    0.969
   509   6 C    3.950 --   510 C    0.973   524 H    0.967   525 H    0.965
                           507 C    0.950
   510   6 C    3.899 --   506 O    1.001   509 C    0.973   511 N    0.926
                           526 H    0.924
   511   7 N    3.518 --   519 C    1.235   512 C    1.097   510 C    0.926
                           513 O    0.101
   512   6 C    3.955 --   513 O    1.643   514 N    1.139   511 N    1.097
   513   8 O    1.957 --   512 C    1.643   514 N    0.122   511 N    0.101
   514   7 N    3.556 --   515 C    1.215   512 C    1.139   527 H    0.841
                           516 O    0.142   513 O    0.122
   515   6 C    3.947 --   516 O    1.605   514 N    1.215   517 C    1.047
   516   8 O    1.936 --   515 C    1.605   514 N    0.142
   517   6 C    3.791 --   519 C    1.494   518 C    1.070   515 C    1.047
   518   6 C    3.891 --   517 C    1.070   530 H    0.971   528 H    0.910
                           529 H    0.884
   519   6 C    3.833 --   517 C    1.494   511 N    1.235   531 H    0.938
   520   1 H    0.993 --   504 C    0.960
   521   1 H    0.988 --   504 C    0.953
   522   1 H    0.988 --   505 C    0.950
   523   1 H    0.995 --   507 C    0.954
   524   1 H    0.991 --   509 C    0.967
   525   1 H    0.986 --   509 C    0.965
   526   1 H    0.960 --   510 C    0.924
   527   1 H    0.929 --   514 N    0.841
   528   1 H    0.945 --   518 C    0.910
   529   1 H    0.915 --   518 C    0.884
   530   1 H    0.987 --   518 C    0.971
   531   1 H    0.975 --   519 C    0.938
   532  15 P    5.620 --   534 O    1.645   533 O    1.625   535 O    1.184
                           508 O    1.111
   533   8 O    1.794 --   532 P    1.625
   534   8 O    1.816 --   532 P    1.645
   535   8 O    2.315 --   532 P    1.184   536 C    0.936
   536   6 C    3.918 --   537 C    0.978   554 H    0.966   555 H    0.961
                           535 O    0.936
   537   6 C    3.952 --   539 C    0.997   536 C    0.978   556 H    0.950
                           538 O    0.947
   538   8 O    2.092 --   542 C    1.011   537 C    0.947
   539   6 C    3.928 --   537 C    0.997   541 C    0.996   557 H    0.949
                           540 O    0.918
   540   8 O    2.297 --   565 P    1.156   539 C    0.918
   541   6 C    3.974 --   539 C    0.996   558 H    0.965   559 H    0.962
                           542 C    0.958
   542   6 C    3.912 --   538 O    1.011   541 C    0.958   560 H    0.940
                           543 N    0.926
   543   7 N    3.644 --   544 C    1.254   553 C    1.210   542 C    0.926
   544   6 C    3.811 --   545 N    1.483   543 N    1.254   561 H    0.948
   545   7 N    2.982 --   544 C    1.483   546 C    1.305
   546   6 C    3.804 --   545 N    1.305   553 C    1.207   547 C    1.089
   547   6 C    3.946 --   548 O    1.613   549 N    1.156   546 C    1.089
   548   8 O    1.942 --   547 C    1.613   549 N    0.130
   549   7 N    3.521 --   550 C    1.164   547 C    1.156   562 H    0.852
                           548 O    0.130
   550   6 C    3.954 --   551 N    1.395   552 N    1.331   549 N    1.164
   551   7 N    3.382 --   550 C    1.395   564 H    0.888   563 H    0.869
   552   7 N    2.865 --   550 C    1.331   553 C    1.281
   553   6 C    3.880 --   552 N    1.281   543 N    1.210   546 C    1.207
   554   1 H    0.995 --   536 C    0.966
   555   1 H    0.994 --   536 C    0.961
   556   1 H    0.992 --   537 C    0.950
   557   1 H    0.995 --   539 C    0.949
   558   1 H    0.990 --   541 C    0.965
   559   1 H    0.984 --   541 C    0.962
   560   1 H    0.980 --   542 C    0.940
   561   1 H    0.983 --   544 C    0.948
   562   1 H    0.931 --   549 N    0.852
   563   1 H    0.922 --   551 N    0.869
   564   1 H    0.909 --   551 N    0.888
   565  15 P    5.619 --   567 O    1.696   566 O    1.635   540 O    1.156
                           568 O    1.082
   566   8 O    1.806 --   565 P    1.635
   567   8 O    1.868 --   565 P    1.696
   568   8 O    2.244 --   565 P    1.082   569 C    0.962
   569   6 C    3.925 --   570 C    0.991   568 O    0.962   585 H    0.955
                           584 H    0.954
   570   6 C    3.938 --   569 C    0.991   571 O    0.982   572 C    0.943
                           586 H    0.937
   571   8 O    2.085 --   570 C    0.982   575 C    0.972
   572   6 C    3.910 --   574 C    0.977   573 O    0.956   587 H    0.952
                           570 C    0.943
   573   8 O    2.332 --   595 P    1.155   572 C    0.956
   574   6 C    3.965 --   572 C    0.977   575 C    0.969   589 H    0.965
                           588 H    0.960
   575   6 C    3.912 --   576 N    0.974   571 O    0.972   574 C    0.969
                           590 H    0.924
   576   7 N    3.513 --   583 C    1.193   577 C    1.066   575 C    0.974
                           578 O    0.103
   577   6 C    3.945 --   578 O    1.601   579 N    1.191   576 N    1.066
   578   8 O    1.971 --   577 C    1.601   579 N    0.129   576 N    0.103
   579   7 N    3.024 --   580 C    1.347   577 C    1.191   578 O    0.129
                           581 N    0.116
   580   6 C    3.969 --   581 N    1.358   579 N    1.347   582 C    1.178
   581   7 N    3.427 --   580 C    1.358   592 H    0.906   591 H    0.889
                           579 N    0.116
   582   6 C    3.887 --   583 C    1.611   580 C    1.178   593 H    0.942
   583   6 C    3.931 --   582 C    1.611   576 N    1.193   594 H    0.949
   584   1 H    0.985 --   569 C    0.954
   585   1 H    0.992 --   569 C    0.955
   586   1 H    0.976 --   570 C    0.937
   587   1 H    0.994 --   572 C    0.952
   588   1 H    0.991 --   574 C    0.960
   589   1 H    0.986 --   574 C    0.965
   590   1 H    0.968 --   575 C    0.924
   591   1 H    0.945 --   581 N    0.889
   592   1 H    0.927 --   581 N    0.906
   593   1 H    0.977 --   582 C    0.942
   594   1 H    0.977 --   583 C    0.949
   595  15 P    5.578 --   596 O    1.634   597 O    1.587   573 O    1.155
                           598 O    1.138
   596   8 O    1.798 --   595 P    1.634
   597   8 O    1.746 --   595 P    1.587
   598   8 O    2.295 --   595 P    1.138   599 C    0.955
   599   6 C    3.916 --   600 C    0.986   598 O    0.955   616 H    0.951
                           615 H    0.947
   600   6 C    3.918 --   599 C    0.986   602 C    0.956   617 H    0.949
                           601 O    0.936
   601   8 O    2.093 --   605 C    1.020   600 C    0.936
   602   6 C    3.938 --   603 O    1.003   604 C    0.990   600 C    0.956
                           618 H    0.946
   603   8 O    1.945 --   602 C    1.003   619 H    0.863
   604   6 C    3.942 --   602 C    0.990   621 H    0.961   620 H    0.959
                           605 C    0.954
   605   6 C    3.895 --   601 O    1.020   604 C    0.954   622 H    0.927
                           606 N    0.923
   606   7 N    3.500 --   614 C    1.266   607 C    1.059   605 C    0.923
   607   6 C    3.954 --   608 O    1.652   609 N    1.173   606 N    1.059
   608   8 O    1.959 --   607 C    1.652   609 N    0.136
   609   7 N    3.526 --   607 C    1.173   610 C    1.136   623 H    0.846
                           611 O    0.138   608 O    0.136
   610   6 C    3.935 --   611 O    1.675   609 N    1.136   612 C    1.047
   611   8 O    1.992 --   610 C    1.675   609 N    0.138
   612   6 C    3.771 --   614 C    1.488   613 C    1.070   610 C    1.047
   613   6 C    3.881 --   612 C    1.070   626 H    0.969   624 H    0.899
                           625 H    0.892
   614   6 C    3.845 --   612 C    1.488   606 N    1.266   627 H    0.932
   615   1 H    0.992 --   599 C    0.947
   616   1 H    0.994 --   599 C    0.951
   617   1 H    0.982 --   600 C    0.949
   618   1 H    0.980 --   602 C    0.946
   619   1 H    0.886 --   603 O    0.863
   620   1 H    0.984 --   604 C    0.959
   621   1 H    0.984 --   604 C    0.961
   622   1 H    0.967 --   605 C    0.927
   623   1 H    0.935 --   609 N    0.846
   624   1 H    0.930 --   613 C    0.899
   625   1 H    0.925 --   613 C    0.892
   626   1 H    0.983 --   613 C    0.969
   627   1 H    0.971 --   614 C    0.932
 ---------------------------------------------------------------------------

Topologies differ in total number of bonds
Writing topology from bond orders to xtbtopo.mol

molecular dipole:
                 x           y           z       tot (Debye)
 q only:      -12.009      -0.011       0.175
   full:      -12.393      -0.545       3.190      32.557
molecular quadrupole (traceless):
                xx          xy          yy          xz          yz          zz
 q only:     -198.800     774.393    -576.726   -2443.927   -2263.885     775.525
  q+dip:     -546.890     527.030    -730.396   -2055.691   -1853.849    1277.286
   full:     -550.745     535.195    -726.938   -2063.784   -1857.391    1277.683


           -------------------------------------------------
          | TOTAL ENERGY            -1267.600810039451 Eh   |
          | GRADIENT NORM               0.803158441299 Eh/α |
          | HOMO-LUMO GAP               0.002800458496 eV   |
           -------------------------------------------------

------------------------------------------------------------------------
 * finished run on 2023/04/12 at 14:28:08.098     
------------------------------------------------------------------------
 total:
 * wall-time:     0 d,  0 h,  0 min, 30.118 sec
 *  cpu-time:     0 d,  0 h,  4 min, 57.223 sec
 * ratio c/w:     9.869 speedup
 SCF:
 * wall-time:     0 d,  0 h,  0 min, 29.285 sec
 *  cpu-time:     0 d,  0 h,  4 min, 51.260 sec
 * ratio c/w:     9.946 speedup

