      -----------------------------------------------------------      
     |                   =====================                   |     
     |                           x T B                           |     
     |                   =====================                   |     
     |                         S. Grimme                         |     
     |          Mulliken Center for Theoretical Chemistry        |     
     |                    University of Bonn                     |     
      -----------------------------------------------------------      

   * xtb version 6.5.1 (579679a) compiled by 'ehlert@majestix' on 2022-07-11

   xtb is free software: you can redistribute it and/or modify it under
   the terms of the GNU Lesser General Public License as published by
   the Free Software Foundation, either version 3 of the License, or
   (at your option) any later version.
   
   xtb is distributed in the hope that it will be useful,
   but WITHOUT ANY WARRANTY; without even the implied warranty of
   MERCHANTABILITY or FITNESS FOR A PARTICULAR PURPOSE.  See the
   GNU Lesser General Public License for more details.
   
   Cite this work as:
   * C. Bannwarth, E. Caldeweyher, S. Ehlert, A. Hansen, P. Pracht,
     J. Seibert, S. Spicher, S. Grimme, WIREs Comput. Mol. Sci., 2020, 11,
     e01493. DOI: 10.1002/wcms.1493
   
   for GFN2-xTB:
   * C. Bannwarth, S. Ehlert and S. Grimme., J. Chem. Theory Comput., 2019,
     15, 1652-1671. DOI: 10.1021/acs.jctc.8b01176
   for GFN1-xTB:
   * S. Grimme, C. Bannwarth, P. Shushkov, J. Chem. Theory Comput., 2017,
     13, 1989-2009. DOI: 10.1021/acs.jctc.7b00118
   for GFN0-xTB:
   * P. Pracht, E. Caldeweyher, S. Ehlert, S. Grimme, ChemRxiv, 2019, preprint.
     DOI: 10.26434/chemrxiv.8326202.v1
   for GFN-FF:
   * S. Spicher and S. Grimme, Angew. Chem. Int. Ed., 2020, 59, 15665-15673.
     DOI: 10.1002/anie.202004239
   
   for ALPB and GBSA implicit solvation:
   * S. Ehlert, M. Stahn, S. Spicher, S. Grimme, J. Chem. Theory Comput.,
     2021, 17, 4250-4261. DOI: 10.1021/acs.jctc.1c00471
   
   for DFT-D4:
   * E. Caldeweyher, C. Bannwarth and S. Grimme, J. Chem. Phys., 2017,
     147, 034112. DOI: 10.1063/1.4993215
   * E. Caldeweyher, S. Ehlert, A. Hansen, H. Neugebauer, S. Spicher,
     C. Bannwarth and S. Grimme, J. Chem. Phys., 2019, 150, 154122.
     DOI: 10.1063/1.5090222
   * E. Caldeweyher, J.-M. Mewes, S. Ehlert and S. Grimme, Phys. Chem. Chem. Phys.
     2020, 22, 8499-8512. DOI: 10.1039/D0CP00502A
   
   for sTDA-xTB:
   * S. Grimme and C. Bannwarth, J. Chem. Phys., 2016, 145, 054103.
     DOI: 10.1063/1.4959605
   
   in the mass-spec context:
   * V. Asgeirsson, C. Bauer and S. Grimme, Chem. Sci., 2017, 8, 4879.
     DOI: 10.1039/c7sc00601b
   * J. Koopman and S. Grimme, ACS Omega 2019, 4, 12, 15120-15133.
     DOI: 10.1021/acsomega.9b02011
   
   for metadynamics refer to:
   * S. Grimme, J. Chem. Theory Comput., 2019, 155, 2847-2862
     DOI: 10.1021/acs.jctc.9b00143
   
   for SPH calculations refer to:
   * S. Spicher and S. Grimme, J. Chem. Theory Comput., 2021, 17, 1701-1714
     DOI: 10.1021/acs.jctc.0c01306
   
   with help from (in alphabetical order)
   P. Atkinson, C. Bannwarth, F. Bohle, G. Brandenburg, E. Caldeweyher
   M. Checinski, S. Dohm, S. Ehlert, S. Ehrlich, I. Gerasimov, C. Hölzer
   A. Katbashev, J. Koopman, C. Lavigne, S. Lehtola, F. März, M. Müller,
   F. Musil, H. Neugebauer, J. Pisarek, C. Plett, P. Pracht, F. Pultar,
   J. Seibert, P. Shushkov, S. Spicher, M. Stahn, M. Steiner, T. Strunk,
   J. Stückrath, T. Rose, and J. Unsleber
   
 * started run on 2023/03/09 at 13:52:03.588     

           -------------------------------------------------
          |                Calculation Setup                |
           -------------------------------------------------

          program call               : /N/u/schandy/BigRed3/bin/xtb-6.5.1/bin/xtb 1sy8.xyz --alpb water
          hostname                   : nid00005
          coordinate file            : 1sy8.xyz
          omp threads                :                    10

   ID    Z sym.   atoms
    1    8 O      1, 4, 6, 11, 14, 31-33, 36, 38, 46, 64-66, 69, 71, 96-98,
                  101, 103, 108, 111, 128-130, 133, 135, 140, 158-160, 163,
                  165, 189, 192, 194, 199, 202, 219-221, 224, 226, 234,
                  252-254, 257, 259, 284-286, 289, 291, 296, 299, 316-318,
                  321, 323, 328, 346-348, 351, 353
    2    6 C      2, 3, 5, 7, 8, 10, 13, 15-17, 34, 35, 37, 39, 40, 42, 44,
                  45, 48, 51, 67, 68, 70, 72, 73, 75, 77, 78, 81, 83, 99,
                  100, 102, 104, 105, 107, 110, 112-114, 131, 132, 134, 136,
                  137, 139, 142, 144, 145, 161, 162, 164, 166, 167, 169, 171,
                  172, 175, 177, 190, 191, 193, 195, 196, 198, 201, 203-205,
                  222, 223, 225, 227, 228, 230, 232, 233, 236, 239, 255, 256,
                  258, 260, 261, 263, 265, 266, 269, 271, 287, 288, 290, 292,
                  293, 295, 298, 300-302, 319, 320, 322, 324, 325, 327, 330,
                  332, 333, 349, 350, 352, 354, 355, 357, 359, 360, 363, 365
    3    7 N      9, 12, 41, 43, 47, 49, 50, 74, 76, 79, 80, 82, 106, 109,
                  138, 141, 143, 168, 170, 173, 174, 176, 197, 200, 229, 231,
                  235, 237, 238, 262, 264, 267, 268, 270, 294, 297, 326, 329,
                  331, 356, 358, 361, 362, 364
    4    1 H      18-29, 52-62, 84-94, 115-126, 146-156, 178-188, 206-217,
                  240-250, 272-282, 303-314, 334-344, 366-390
    5   15 P      30, 63, 95, 127, 157, 218, 251, 283, 315, 345

molecular fragmentation (1/2 indicates fragments):
111111111111111111111111111111111111111111111111111111111111111111111111
111111111111111111111111111111111111111111111111111111111111111111111111
111111111111111111111111111111111111111111112222222222222222222222222222
222222222222222222222222222222222222222222222222222222222222222222222222
222222222222222222222222222222222222222222222222222222222222222222222222
222222222222222222112222211111
# atoms in fragment 1/2:   195   195
 fragment masses (1/2) :     1791.23     1791.23
CMA distance (Bohr)    :  12.632
constraining FC (au)   :  0.0500

           -------------------------------------------------
          |                 G F N 2 - x T B                 |
           -------------------------------------------------

        Reference                      10.1021/acs.jctc.8b01176
      * Hamiltonian:
        H0-scaling (s, p, d)           1.850000    2.230000    2.230000
        zeta-weighting                 0.500000
      * Dispersion:
        s8                             2.700000
        a1                             0.520000
        a2                             5.000000
        s9                             5.000000
      * Repulsion:
        kExp                           1.500000    1.000000
        rExp                           1.000000
      * Coulomb:
        alpha                          2.000000
        third order                    shell-resolved
        anisotropic                    true
        a3                             3.000000
        a5                             4.000000
        cn-shift                       1.200000
        cn-exp                         4.000000
        max-rad                        5.000000

      * Solvation model:               ALPB
        Solvent                        water
        Parameter file                 internal GFN2-xTB/ALPB
        Dielectric constant                8.0200E+01
        Reference state                gsolv [1 M gas/solution]
        Free energy shift                  1.0808E-03 Eh       6.7819E-01 kcal/mol
        Temperature                        2.9815E+02 K
        Density                            1.0000E+00 kg/L
        Solvent mass                       1.8000E+01 g/mol
        Interaction kernel             P16
        Born radius scaling (c1)           1.4744E+00
        Born radii integrator          GBOBC
        Born offset                        0.0000E+00 a0       0.0000E+00 AA
        H-bond correction              true
        Ion screening                  false
        Surface tension                    1.0000E-05 Eh       1.5569E+01 dyn/cm
        Grid points                               230 per atom

          ...................................................
          :                      SETUP                      :
          :.................................................:
          :  # basis functions                1170          :
          :  # atomic orbitals                1160          :
          :  # shells                          640          :
          :  # electrons                      1300          :
          :  max. iterations                   250          :
          :  Hamiltonian                  GFN2-xTB          :
          :  restarted?                      false          :
          :  GBSA solvation                   true          :
          :  PC potential                    false          :
          :  electronic temp.          300.0000000     K    :
          :  accuracy                    1.0000000          :
          :  -> integral cutoff          0.2500000E+02      :
          :  -> integral neglect         0.1000000E-07      :
          :  -> SCF convergence          0.1000000E-05 Eh   :
          :  -> wf. convergence          0.1000000E-03 e    :
          :  Broyden damping             0.4000000          :
          ...................................................

 iter      E             dE          RMSdq      gap      omega  full diag
   1   -767.4576880 -0.767458E+03  0.579E+00    2.88       0.0  T
   2   -769.1842494 -0.172656E+01  0.329E+00    2.48       1.0  T
   3   -769.2989446 -0.114695E+00  0.142E+00    2.86       1.0  T
   4   -769.4490837 -0.150139E+00  0.605E-01    2.59       1.0  T
   5   -769.4938230 -0.447393E-01  0.295E-01    2.66       1.0  T
   6   -769.5005063 -0.668326E-02  0.127E-01    2.65       1.0  T
   7   -769.5019231 -0.141684E-02  0.649E-02    2.65       1.0  T
   8   -769.5020582 -0.135106E-03  0.322E-02    2.65       1.0  T
   9   -769.5021521 -0.939243E-04  0.128E-02    2.65       1.0  T
  10   -769.5021715 -0.193273E-04  0.513E-03    2.65       1.0  T
  11   -769.5021729 -0.140428E-05  0.265E-03    2.65       1.9  T
  12   -769.5021737 -0.780190E-06  0.969E-04    2.65       5.2  T
  13   -769.5021737 -0.492557E-07  0.452E-04    2.65      11.2  T

   *** convergence criteria satisfied after 13 iterations ***

         #    Occupation            Energy/Eh            Energy/eV
      -------------------------------------------------------------
         1        2.0000           -0.7767595             -21.1367
       ...           ...                  ...                  ...
       644        2.0000           -0.3895355             -10.5998
       645        2.0000           -0.3874126             -10.5420
       646        2.0000           -0.3852248             -10.4825
       647        2.0000           -0.3847898             -10.4707
       648        2.0000           -0.3817495             -10.3879
       649        2.0000           -0.3814188             -10.3789
       650        2.0000           -0.3801573             -10.3446 (HOMO)
       651                         -0.2828702              -7.6973 (LUMO)
       652                         -0.2821150              -7.6767
       653                         -0.2802251              -7.6253
       654                         -0.2801211              -7.6225
       655                         -0.2688508              -7.3158
       ...                                ...                  ...
      1160                          1.4917648              40.5930
      -------------------------------------------------------------
                  HL-Gap            0.0972871 Eh            2.6473 eV
             Fermi-level           -0.3315138 Eh           -9.0209 eV

 SCC (total)                   0 d,  0 h,  0 min,  2.731 sec
 SCC setup                      ...        0 min,  0.022 sec (  0.805%)
 Dispersion                     ...        0 min,  0.047 sec (  1.713%)
 classical contributions        ...        0 min,  0.001 sec (  0.050%)
 integral evaluation            ...        0 min,  0.154 sec (  5.657%)
 iterations                     ...        0 min,  1.877 sec ( 68.739%)
 molecular gradient             ...        0 min,  0.614 sec ( 22.502%)
 printout                       ...        0 min,  0.015 sec (  0.533%)

         :::::::::::::::::::::::::::::::::::::::::::::::::::::
         ::                     SUMMARY                     ::
         :::::::::::::::::::::::::::::::::::::::::::::::::::::
         :: total energy            -762.121300285906 Eh    ::
         :: total w/o Gsasa/hb      -761.995810615186 Eh    ::
         :: gradient norm              0.492656943637 Eh/a0 ::
         :: HOMO-LUMO gap              2.647317562031 eV    ::
         ::.................................................::
         :: SCC energy              -769.502173706627 Eh    ::
         :: -> isotropic ES            2.665728048770 Eh    ::
         :: -> anisotropic ES         -0.163310351210 Eh    ::
         :: -> anisotropic XC          0.145891091066 Eh    ::
         :: -> dispersion             -0.656071264353 Eh    ::
         :: -> Gsolv                  -0.525791880748 Eh    ::
         ::    -> Gelec               -0.400302210028 Eh    ::
         ::    -> Gsasa                0.032860081900 Eh    ::
         ::    -> Ghb                 -0.159430512318 Eh    ::
         ::    -> Gshift               0.001080759698 Eh    ::
         :: repulsion energy           7.333279437644 Eh    ::
         :: add. restraining           0.000000000000 Eh    ::
         :: total charge               0.000000000000 e     ::
         :::::::::::::::::::::::::::::::::::::::::::::::::::::

           -------------------------------------------------
          |                Property Printout                |
           -------------------------------------------------

    * Orbital Energies and Occupations

         #    Occupation            Energy/Eh            Energy/eV
      -------------------------------------------------------------
         1        2.0000           -0.7767595             -21.1367
       ...           ...                  ...                  ...
       638        2.0000           -0.3960943             -10.7783
       639        2.0000           -0.3945389             -10.7359
       640        2.0000           -0.3928405             -10.6897
       641        2.0000           -0.3921427             -10.6707
       642        2.0000           -0.3906746             -10.6308
       643        2.0000           -0.3896772             -10.6037
       644        2.0000           -0.3895355             -10.5998
       645        2.0000           -0.3874126             -10.5420
       646        2.0000           -0.3852248             -10.4825
       647        2.0000           -0.3847898             -10.4707
       648        2.0000           -0.3817495             -10.3879
       649        2.0000           -0.3814188             -10.3789
       650        2.0000           -0.3801573             -10.3446 (HOMO)
       651                         -0.2828702              -7.6973 (LUMO)
       652                         -0.2821150              -7.6767
       653                         -0.2802251              -7.6253
       654                         -0.2801211              -7.6225
       655                         -0.2688508              -7.3158
       656                         -0.2675930              -7.2816
       657                         -0.2639374              -7.1821
       658                         -0.2620002              -7.1294
       659                         -0.2618242              -7.1246
       660                         -0.2593557              -7.0574
       661                         -0.2503396              -6.8121
       ...                                ...                  ...
      1160                          1.4917648              40.5930
      -------------------------------------------------------------
                  HL-Gap            0.0972871 Eh            2.6473 eV
             Fermi-level           -0.3315138 Eh           -9.0209 eV

 * generalized Born model for continuum solvation

     #   Z     Born rad/Å   SASA/Å²    H-bond
     1   8 O        1.992    22.300    -0.002
     2   6 C        2.311     1.692    -0.000
     3   6 C        2.515     0.040    -0.000
     4   8 O        2.358     3.848    -0.000
     5   6 C        2.569     0.220    -0.000
     6   8 O        2.320     5.136    -0.001
     7   6 C        2.564     0.353    -0.000
     8   6 C        2.688     0.015    -0.000
     9   7 N        2.630     0.153    -0.000
    10   6 C        2.659     3.499    -0.000
    11   8 O        2.192     9.732    -0.001
    12   7 N        2.446     2.098    -0.000
    13   6 C        2.579     4.904    -0.000
    14   8 O        2.133    13.992    -0.002
    15   6 C        2.634     4.067    -0.000
    16   6 C        2.364     3.440    -0.000
    17   6 C        2.682     4.292    -0.000
    18   1 H        1.818    21.394    -0.036
    19   1 H        1.840    16.427    -0.028
    20   1 H        1.929    13.029    -0.022
    21   1 H        1.933    12.834    -0.022
    22   1 H        1.976     9.683    -0.016
    23   1 H        1.999     4.211    -0.007
    24   1 H        2.042     1.478    -0.002
    25   1 H        2.157     1.381    -0.002
    26   1 H        1.847    18.401    -0.031
    27   1 H        1.847    21.350    -0.036
    28   1 H        1.849    20.980    -0.035
    29   1 H        2.003     7.072    -0.012
    30  15 P        2.763     8.695    -0.002
    31   8 O        2.064    16.506    -0.002
    32   8 O        2.082    24.702    -0.003
    33   8 O        2.298     1.029    -0.000
    34   6 C        2.454     0.289    -0.000
    35   6 C        2.554     0.215    -0.000
    36   8 O        2.396     4.239    -0.000
    37   6 C        2.638     0.038    -0.000
    38   8 O        2.337     5.103    -0.001
    39   6 C        2.617     0.249    -0.000
    40   6 C        2.752     0.201    -0.000
    41   7 N        2.846     0.000    -0.000
    42   6 C        2.710     3.356    -0.000
    43   7 N        2.497    10.380    -0.001
    44   6 C        3.067     0.004    -0.000
    45   6 C        2.751     0.002    -0.000
    46   8 O        2.213     8.278    -0.001
    47   7 N        2.681     0.000     0.000
    48   6 C        2.880     0.011    -0.000
    49   7 N        2.313     0.584    -0.000
    50   7 N        2.651     2.379    -0.000
    51   6 C        3.211     0.107    -0.000
    52   1 H        1.896    10.441    -0.018
    53   1 H        1.897     8.579    -0.014
    54   1 H        1.935    16.162    -0.027
    55   1 H        2.009     7.745    -0.013
    56   1 H        2.015    10.253    -0.017
    57   1 H        2.050     1.100    -0.002
    58   1 H        2.075     4.539    -0.008
    59   1 H        1.986     6.082    -0.010
    60   1 H        2.303     0.000    -0.000
    61   1 H        1.978     2.410    -0.004
    62   1 H        1.932    13.991    -0.023
    63  15 P        2.775     6.903    -0.001
    64   8 O        2.067    12.004    -0.001
    65   8 O        2.085    24.561    -0.003
    66   8 O        2.327     0.726    -0.000
    67   6 C        2.484     0.236    -0.000
    68   6 C        2.590     0.101    -0.000
    69   8 O        2.434     3.377    -0.000
    70   6 C        2.651     0.093    -0.000
    71   8 O        2.343     4.963    -0.001
    72   6 C        2.674     0.008    -0.000
    73   6 C        2.798     0.005    -0.000
    74   7 N        2.965     0.000     0.000
    75   6 C        2.788     0.625    -0.000
    76   7 N        2.576     7.395    -0.001
    77   6 C        3.306     0.009    -0.000
    78   6 C        2.939     0.000    -0.000
    79   7 N        2.307     0.312    -0.000
    80   7 N        2.651     0.000    -0.000
    81   6 C        2.770     0.097    -0.000
    82   7 N        2.612     1.832    -0.000
    83   6 C        3.353     0.000     0.000
    84   1 H        1.922     9.242    -0.016
    85   1 H        1.916    11.886    -0.020
    86   1 H        1.953    15.996    -0.027
    87   1 H        2.013     8.265    -0.014
    88   1 H        2.081     3.484    -0.006
    89   1 H        2.114     0.000    -0.000
    90   1 H        2.082     2.586    -0.004
    91   1 H        2.033     3.534    -0.006
    92   1 H        1.965     2.150    -0.004
    93   1 H        1.924    16.048    -0.027
    94   1 H        2.033     6.522    -0.011
    95  15 P        2.775     6.885    -0.001
    96   8 O        2.066    12.735    -0.001
    97   8 O        2.089    22.692    -0.003
    98   8 O        2.325     1.327    -0.000
    99   6 C        2.463     0.357    -0.000
   100   6 C        2.585     0.092    -0.000
   101   8 O        2.447     2.960    -0.000
   102   6 C        2.629     0.128    -0.000
   103   8 O        2.345     4.490    -0.000
   104   6 C        2.636     0.334    -0.000
   105   6 C        2.773     0.043    -0.000
   106   7 N        2.794     0.000     0.000
   107   6 C        2.778     0.000     0.000
   108   8 O        2.235     5.116    -0.001
   109   7 N        2.592     0.000     0.000
   110   6 C        2.756     0.001    -0.000
   111   8 O        2.226     7.970    -0.001
   112   6 C        2.822     0.056    -0.000
   113   6 C        2.472     2.194    -0.000
   114   6 C        2.859     0.646    -0.000
   115   1 H        1.912    10.102    -0.017
   116   1 H        1.892    13.805    -0.023
   117   1 H        1.956    15.852    -0.027
   118   1 H        1.992     8.545    -0.014
   119   1 H        2.041     7.436    -0.012
   120   1 H        2.057     0.731    -0.001
   121   1 H        2.047     5.618    -0.009
   122   1 H        2.254     0.000    -0.000
   123   1 H        1.975     5.517    -0.009
   124   1 H        1.921     9.569    -0.016
   125   1 H        1.887    16.980    -0.029
   126   1 H        2.107     1.435    -0.002
   127  15 P        2.770     6.180    -0.001
   128   8 O        2.069    11.676    -0.001
   129   8 O        2.081    25.499    -0.003
   130   8 O        2.329     0.295    -0.000
   131   6 C        2.455     0.462    -0.000
   132   6 C        2.568     0.112    -0.000
   133   8 O        2.395     5.238    -0.001
   134   6 C        2.613     0.204    -0.000
   135   8 O        2.333     4.963    -0.001
   136   6 C        2.614     0.232    -0.000
   137   6 C        2.726     0.160    -0.000
   138   7 N        2.710     0.000    -0.000
   139   6 C        2.750     0.083    -0.000
   140   8 O        2.248     4.651    -0.001
   141   7 N        2.596     0.000     0.000
   142   6 C        2.785     0.024    -0.000
   143   7 N        2.259     1.058    -0.000
   144   6 C        2.687     3.040    -0.000
   145   6 C        2.733     2.392    -0.000
   146   1 H        1.890    12.462    -0.021
   147   1 H        1.892    13.360    -0.022
   148   1 H        1.944    15.674    -0.026
   149   1 H        1.982     9.073    -0.015
   150   1 H        2.018     8.933    -0.015
   151   1 H        2.028     2.689    -0.005
   152   1 H        2.030     3.610    -0.006
   153   1 H        1.942     2.047    -0.003
   154   1 H        1.896    13.813    -0.023
   155   1 H        1.990    11.313    -0.019
   156   1 H        2.057     3.228    -0.005
   157  15 P        2.767     6.120    -0.001
   158   8 O        2.064    12.106    -0.001
   159   8 O        2.084    23.838    -0.003
   160   8 O        2.297     0.987    -0.000
   161   6 C        2.444     0.298    -0.000
   162   6 C        2.524     0.143    -0.000
   163   8 O        2.361     7.023    -0.001
   164   6 C        2.467     0.405    -0.000
   165   8 O        2.040    17.138    -0.002
   166   6 C        2.509     0.995    -0.000
   167   6 C        2.653     0.270    -0.000
   168   7 N        2.759     0.197    -0.000
   169   6 C        2.694     3.077    -0.000
   170   7 N        2.495     9.771    -0.001
   171   6 C        3.064     3.229    -0.000
   172   6 C        2.785     3.932    -0.000
   173   7 N        2.251     3.917    -0.000
   174   7 N        2.527     2.643    -0.000
   175   6 C        2.636     5.966    -0.001
   176   7 N        2.443     8.755    -0.001
   177   6 C        3.039     3.176    -0.000
   178   1 H        1.898     9.590    -0.016
   179   1 H        1.893    13.019    -0.022
   180   1 H        1.921    16.726    -0.028
   181   1 H        1.925    13.467    -0.023
   182   1 H        1.984    11.303    -0.019
   183   1 H        1.904    16.277    -0.027
   184   1 H        1.972    14.111    -0.024
   185   1 H        2.004     2.961    -0.005
   186   1 H        1.918     3.001    -0.005
   187   1 H        1.902    15.521    -0.026
   188   1 H        1.979    12.758    -0.021
   189   8 O        1.992    22.382    -0.002
   190   6 C        2.311     1.695    -0.000
   191   6 C        2.513     0.056    -0.000
   192   8 O        2.351     4.736    -0.001
   193   6 C        2.572     0.269    -0.000
   194   8 O        2.322     4.646    -0.001
   195   6 C        2.566     0.342    -0.000
   196   6 C        2.684     0.048    -0.000
   197   7 N        2.630     0.169    -0.000
   198   6 C        2.656     3.826    -0.000
   199   8 O        2.189    10.173    -0.001
   200   7 N        2.446     2.180    -0.000
   201   6 C        2.578     4.914    -0.000
   202   8 O        2.133    14.037    -0.002
   203   6 C        2.634     4.069    -0.000
   204   6 C        2.365     3.440    -0.000
   205   6 C        2.684     3.716    -0.000
   206   1 H        1.818    21.449    -0.036
   207   1 H        1.842    16.044    -0.027
   208   1 H        1.926    14.081    -0.024
   209   1 H        1.937    11.981    -0.020
   210   1 H        1.978     9.905    -0.017
   211   1 H        2.002     3.747    -0.006
   212   1 H        2.032     2.370    -0.004
   213   1 H        2.158     1.214    -0.002
   214   1 H        1.849    20.979    -0.035
   215   1 H        1.847    18.419    -0.031
   216   1 H        1.847    21.327    -0.036
   217   1 H        2.005     6.676    -0.011
   218  15 P        2.762     6.422    -0.001
   219   8 O        2.064    11.854    -0.001
   220   8 O        2.082    23.467    -0.003
   221   8 O        2.295     1.099    -0.000
   222   6 C        2.451     0.307    -0.000
   223   6 C        2.553     0.206    -0.000
   224   8 O        2.391     4.843    -0.001
   225   6 C        2.638     0.040    -0.000
   226   8 O        2.335     5.290    -0.001
   227   6 C        2.625     0.181    -0.000
   228   6 C        2.750     0.255    -0.000
   229   7 N        2.844     0.001    -0.000
   230   6 C        2.711     3.100    -0.000
   231   7 N        2.497    10.417    -0.001
   232   6 C        3.067     0.004    -0.000
   233   6 C        2.751     0.002    -0.000
   234   8 O        2.212     8.187    -0.001
   235   7 N        2.681     0.000     0.000
   236   6 C        2.879     0.001    -0.000
   237   7 N        2.313     0.782    -0.000
   238   7 N        2.649     2.184    -0.000
   239   6 C        3.209     0.120    -0.000
   240   1 H        1.893    11.814    -0.020
   241   1 H        1.894    12.433    -0.021
   242   1 H        1.933    16.013    -0.027
   243   1 H        2.010     7.921    -0.013
   244   1 H        2.020     9.819    -0.016
   245   1 H        2.065     0.971    -0.002
   246   1 H        2.073     4.455    -0.007
   247   1 H        1.988     5.689    -0.010
   248   1 H        2.304     0.000    -0.000
   249   1 H        1.983     2.013    -0.003
   250   1 H        1.923    15.158    -0.025
   251  15 P        2.779     6.682    -0.001
   252   8 O        2.068    14.322    -0.002
   253   8 O        2.088    25.144    -0.003
   254   8 O        2.336     0.484    -0.000
   255   6 C        2.488     0.251    -0.000
   256   6 C        2.589     0.159    -0.000
   257   8 O        2.426     4.234    -0.000
   258   6 C        2.653     0.128    -0.000
   259   8 O        2.344     4.879    -0.001
   260   6 C        2.679     0.004    -0.000
   261   6 C        2.795     0.017    -0.000
   262   7 N        2.964     0.000     0.000
   263   6 C        2.794     0.584    -0.000
   264   7 N        2.579     7.205    -0.000
   265   6 C        3.307     0.009    -0.000
   266   6 C        2.939     0.000    -0.000
   267   7 N        2.307     0.332    -0.000
   268   7 N        2.651     0.000    -0.000
   269   6 C        2.769     0.115    -0.000
   270   7 N        2.610     2.307    -0.000
   271   6 C        3.349     0.000     0.000
   272   1 H        1.923     9.049    -0.015
   273   1 H        1.917    10.990    -0.018
   274   1 H        1.950    16.392    -0.028
   275   1 H        2.016     6.844    -0.011
   276   1 H        2.090     3.027    -0.005
   277   1 H        2.120     0.000    -0.000
   278   1 H        2.078     3.515    -0.006
   279   1 H        2.045     2.805    -0.005
   280   1 H        1.962     2.275    -0.004
   281   1 H        1.930    15.752    -0.026
   282   1 H        2.033     6.615    -0.011
   283  15 P        2.776     8.793    -0.002
   284   8 O        2.066    16.499    -0.002
   285   8 O        2.089    23.552    -0.003
   286   8 O        2.326     1.193    -0.000
   287   6 C        2.463     0.338    -0.000
   288   6 C        2.584     0.097    -0.000
   289   8 O        2.443     3.186    -0.000
   290   6 C        2.628     0.141    -0.000
   291   8 O        2.342     4.614    -0.001
   292   6 C        2.638     0.279    -0.000
   293   6 C        2.771     0.053    -0.000
   294   7 N        2.794     0.000     0.000
   295   6 C        2.777     0.000     0.000
   296   8 O        2.235     5.323    -0.001
   297   7 N        2.593     0.000     0.000
   298   6 C        2.758     0.000    -0.000
   299   8 O        2.227     7.836    -0.001
   300   6 C        2.825     0.041    -0.000
   301   6 C        2.471     2.221    -0.000
   302   6 C        2.860     0.557    -0.000
   303   1 H        1.910    10.521    -0.018
   304   1 H        1.892    10.181    -0.017
   305   1 H        1.953    16.004    -0.027
   306   1 H        1.994     8.313    -0.014
   307   1 H        2.042     7.217    -0.012
   308   1 H        2.064     0.581    -0.001
   309   1 H        2.045     5.917    -0.010
   310   1 H        2.254     0.000    -0.000
   311   1 H        1.921     9.647    -0.016
   312   1 H        1.888    16.292    -0.027
   313   1 H        1.968     6.013    -0.010
   314   1 H        2.109     1.364    -0.002
   315  15 P        2.771     7.927    -0.002
   316   8 O        2.069    16.509    -0.002
   317   8 O        2.082    26.381    -0.003
   318   8 O        2.330     0.217    -0.000
   319   6 C        2.455     0.418    -0.000
   320   6 C        2.568     0.121    -0.000
   321   8 O        2.395     5.644    -0.001
   322   6 C        2.612     0.237    -0.000
   323   8 O        2.333     4.857    -0.001
   324   6 C        2.615     0.224    -0.000
   325   6 C        2.727     0.157    -0.000
   326   7 N        2.711     0.001    -0.000
   327   6 C        2.750     0.113    -0.000
   328   8 O        2.248     4.704    -0.001
   329   7 N        2.596     0.000     0.000
   330   6 C        2.786     0.041    -0.000
   331   7 N        2.260     1.973    -0.000
   332   6 C        2.688     3.045    -0.000
   333   6 C        2.736     2.219    -0.000
   334   1 H        1.889    12.377    -0.021
   335   1 H        1.893     9.538    -0.016
   336   1 H        1.943    15.949    -0.027
   337   1 H        1.982     9.017    -0.015
   338   1 H        2.021     8.971    -0.015
   339   1 H        2.031     2.612    -0.004
   340   1 H        2.031     3.754    -0.006
   341   1 H        1.948     1.763    -0.003
   342   1 H        1.897    11.873    -0.020
   343   1 H        1.991    11.469    -0.019
   344   1 H        2.060     3.021    -0.005
   345  15 P        2.767     7.977    -0.002
   346   8 O        2.065    16.486    -0.002
   347   8 O        2.084    24.989    -0.003
   348   8 O        2.299     0.892    -0.000
   349   6 C        2.445     0.292    -0.000
   350   6 C        2.523     0.138    -0.000
   351   8 O        2.358     7.620    -0.001
   352   6 C        2.466     0.447    -0.000
   353   8 O        2.039    17.175    -0.002
   354   6 C        2.506     1.198    -0.000
   355   6 C        2.651     0.377    -0.000
   356   7 N        2.756     0.090    -0.000
   357   6 C        2.695     2.780    -0.000
   358   7 N        2.497     9.615    -0.001
   359   6 C        3.066     3.228    -0.000
   360   6 C        2.785     3.903    -0.000
   361   7 N        2.250     4.032    -0.000
   362   7 N        2.527     2.592    -0.000
   363   6 C        2.636     5.990    -0.001
   364   7 N        2.444     9.715    -0.001
   365   6 C        3.041     3.089    -0.000
   366   1 H        1.898     9.838    -0.017
   367   1 H        1.894     8.841    -0.015
   368   1 H        1.919    14.220    -0.024
   369   1 H        1.925    13.452    -0.023
   370   1 H        1.734    21.089    -0.035
   371   1 H        1.980    11.575    -0.019
   372   1 H        1.903    19.032    -0.032
   373   1 H        1.972    14.447    -0.024
   374   1 H        2.007     2.757    -0.005
   375   1 H        1.915     3.425    -0.006
   376   1 H        1.910    14.966    -0.025
   377   1 H        1.980    12.973    -0.022
   378   1 H        1.755    15.440    -0.026
   379   1 H        1.753    16.277    -0.027
   380   1 H        1.733    21.305    -0.036
   381   1 H        1.750    26.367    -0.044
   382   1 H        1.760    22.780    -0.038
   383   1 H        1.772    18.520    -0.031
   384   1 H        1.777    17.381    -0.029
   385   1 H        1.771    17.833    -0.030
   386   1 H        1.773    17.798    -0.030
   387   1 H        1.751    26.163    -0.044
   388   1 H        1.751    26.342    -0.044
   389   1 H        1.752    26.329    -0.044
   390   1 H        1.750    26.271    -0.044

 total SASA / Å² :     2525.473

     #   Z          covCN         q      C6AA      α(0)
     1   8 O        1.652    -0.494    22.766     6.441
     2   6 C        3.669     0.055    19.896     6.395
     3   6 C        3.783     0.088    19.140     6.232
     4   8 O        1.700    -0.340    19.707     5.994
     5   6 C        3.884     0.106    18.798     6.164
     6   8 O        1.651    -0.358    20.052     6.045
     7   6 C        3.835    -0.087    22.129     6.693
     8   6 C        3.714     0.176    17.906     6.046
     9   7 N        2.744    -0.063    22.452     7.037
    10   6 C        2.705     0.334    21.315     7.557
    11   8 O        0.859    -0.509    23.975     6.565
    12   7 N        2.694    -0.191    25.152     7.449
    13   6 C        2.763     0.288    22.120     7.702
    14   8 O        0.859    -0.471    23.156     6.452
    15   6 C        2.958    -0.028    28.708     8.788
    16   6 C        3.772    -0.138    23.182     6.861
    17   6 C        2.872     0.020    27.563     8.606
    18   1 H        0.924     0.079     1.990     2.206
    19   1 H        0.924     0.060     2.194     2.316
    20   1 H        0.924     0.073     2.049     2.238
    21   1 H        0.924     0.082     1.962     2.190
    22   1 H        0.925     0.094     1.839     2.121
    23   1 H        0.925     0.073     2.048     2.238
    24   1 H        0.923     0.059     2.214     2.327
    25   1 H        0.854     0.235     0.943     1.521
    26   1 H        0.924     0.076     2.024     2.225
    27   1 H        0.925     0.088     1.903     2.157
    28   1 H        0.924     0.085     1.931     2.173
    29   1 H        0.926     0.118     1.629     1.996
    30  15 P        3.708     0.747   131.090    20.567
    31   8 O        1.614    -0.379    20.472     6.107
    32   8 O        0.808    -0.580    25.666     6.791
    33   8 O        1.652    -0.365    20.189     6.065
    34   6 C        3.894     0.050    19.679     6.306
    35   6 C        3.784     0.096    19.013     6.211
    36   8 O        1.698    -0.330    19.531     5.967
    37   6 C        3.955     0.108    18.748     6.153
    38   8 O        1.653    -0.355    19.993     6.036
    39   6 C        3.822    -0.089    22.183     6.703
    40   6 C        3.739     0.176    17.852     6.029
    41   7 N        2.819    -0.058    22.358     7.023
    42   6 C        3.140     0.097    25.629     8.285
    43   7 N        1.873    -0.288    28.327     7.889
    44   6 C        3.196    -0.007    27.662     8.574
    45   6 C        2.764     0.269    22.454     7.760
    46   8 O        0.858    -0.483    23.411     6.487
    47   7 N        2.697    -0.207    25.506     7.501
    48   6 C        2.839     0.233    23.130     7.882
    49   7 N        2.640    -0.282    27.274     7.756
    50   7 N        1.833    -0.345    29.820     8.092
    51   6 C        3.103     0.134    24.955     8.186
    52   1 H        0.925     0.093     1.851     2.128
    53   1 H        0.924     0.086     1.919     2.166
    54   1 H        0.925     0.104     1.751     2.069
    55   1 H        0.924     0.074     2.042     2.235
    56   1 H        0.925     0.082     1.962     2.190
    57   1 H        0.926     0.082     1.962     2.190
    58   1 H        0.924     0.066     2.127     2.281
    59   1 H        0.925     0.068     2.102     2.267
    60   1 H        0.854     0.226     0.985     1.555
    61   1 H        0.859     0.222     1.001     1.567
    62   1 H        0.860     0.242     0.917     1.500
    63  15 P        3.771     0.772   130.275    20.503
    64   8 O        1.614    -0.405    20.975     6.181
    65   8 O        0.808    -0.607    26.312     6.876
    66   8 O        1.653    -0.355    19.996     6.037
    67   6 C        3.926     0.053    19.627     6.296
    68   6 C        3.883     0.096    18.944     6.188
    69   8 O        1.701    -0.323    19.399     5.947
    70   6 C        3.940     0.107    18.759     6.155
    71   8 O        1.652    -0.360    20.085     6.050
    72   6 C        3.878    -0.095    22.251     6.707
    73   6 C        3.766     0.174    17.849     6.022
    74   7 N        2.848    -0.072    22.630     7.065
    75   6 C        3.175     0.104    25.321     8.218
    76   7 N        1.885    -0.300    28.629     7.932
    77   6 C        3.253     0.019    26.527     8.333
    78   6 C        2.883     0.169    24.358     8.091
    79   7 N        2.639    -0.258    26.699     7.674
    80   7 N        1.842    -0.329    29.389     8.034
    81   6 C        2.963     0.150    24.735     8.158
    82   7 N        1.828    -0.333    29.485     8.046
    83   6 C        3.185     0.138    24.581     8.090
    84   1 H        0.925     0.083     1.944     2.181
    85   1 H        0.924     0.089     1.893     2.152
    86   1 H        0.925     0.102     1.765     2.078
    87   1 H        0.924     0.079     1.984     2.203
    88   1 H        0.925     0.089     1.887     2.148
    89   1 H        0.926     0.089     1.891     2.150
    90   1 H        0.924     0.068     2.106     2.270
    91   1 H        0.926     0.072     2.066     2.247
    92   1 H        0.859     0.239     0.927     1.508
    93   1 H        0.858     0.242     0.917     1.500
    94   1 H        0.925     0.028     2.618     2.530
    95  15 P        3.734     0.768   130.391    20.512
    96   8 O        1.614    -0.408    21.019     6.188
    97   8 O        0.808    -0.605    26.277     6.871
    98   8 O        1.652    -0.343    19.784     6.004
    99   6 C        3.888     0.050    19.681     6.307
   100   6 C        3.839     0.093    19.024     6.205
   101   8 O        1.699    -0.326    19.455     5.955
   102   6 C        3.942     0.106    18.784     6.159
   103   8 O        1.652    -0.360    20.095     6.051
   104   6 C        3.870    -0.089    22.151     6.692
   105   6 C        3.756     0.179    17.797     6.015
   106   7 N        2.746    -0.072    22.644     7.067
   107   6 C        2.701     0.333    21.340     7.561
   108   8 O        0.859    -0.505    23.893     6.554
   109   7 N        2.692    -0.200    25.338     7.476
   110   6 C        2.764     0.283    22.211     7.718
   111   8 O        0.859    -0.465    23.017     6.432
   112   6 C        2.959    -0.034    28.840     8.808
   113   6 C        3.763    -0.135    23.149     6.858
   114   6 C        2.875     0.019    27.585     8.610
   115   1 H        0.924     0.092     1.855     2.130
   116   1 H        0.924     0.094     1.838     2.120
   117   1 H        0.925     0.098     1.801     2.099
   118   1 H        0.924     0.086     1.920     2.167
   119   1 H        0.925     0.093     1.848     2.126
   120   1 H        0.925     0.077     2.015     2.220
   121   1 H        0.924     0.060     2.197     2.318
   122   1 H        0.852     0.234     0.949     1.527
   123   1 H        0.925     0.068     2.112     2.273
   124   1 H        0.925     0.085     1.933     2.174
   125   1 H        0.925     0.094     1.837     2.120
   126   1 H        0.925     0.116     1.650     2.008
   127  15 P        3.751     0.770   130.322    20.507
   128   8 O        1.614    -0.407    21.013     6.187
   129   8 O        0.808    -0.604    26.258     6.869
   130   8 O        1.652    -0.351    19.919     6.025
   131   6 C        3.890     0.051    19.665     6.304
   132   6 C        3.813     0.096    18.991     6.203
   133   8 O        1.697    -0.341    19.731     5.997
   134   6 C        3.904     0.109    18.739     6.153
   135   8 O        1.651    -0.362    20.124     6.056
   136   6 C        3.861    -0.082    22.026     6.674
   137   6 C        3.717     0.180    17.836     6.033
   138   7 N        2.740    -0.075    22.693     7.075
   139   6 C        2.729     0.344    21.160     7.531
   140   8 O        0.861    -0.543    24.758     6.671
   141   7 N        1.837    -0.354    30.066     8.126
   142   6 C        2.855     0.180    24.150     8.055
   143   7 N        2.635    -0.271    27.005     7.718
   144   6 C        2.904    -0.095    30.381     9.038
   145   6 C        2.875     0.046    26.971     8.514
   146   1 H        0.924     0.092     1.856     2.131
   147   1 H        0.924     0.098     1.805     2.101
   148   1 H        0.925     0.094     1.839     2.121
   149   1 H        0.924     0.082     1.955     2.186
   150   1 H        0.925     0.089     1.889     2.150
   151   1 H        0.925     0.069     2.094     2.263
   152   1 H        0.924     0.054     2.271     2.357
   153   1 H        0.859     0.242     0.917     1.500
   154   1 H        0.860     0.237     0.935     1.515
   155   1 H        0.926     0.100     1.787     2.091
   156   1 H        0.926     0.094     1.843     2.123
   157  15 P        3.745     0.760   130.660    20.533
   158   8 O        1.614    -0.403    20.934     6.175
   159   8 O        0.808    -0.604    26.252     6.868
   160   8 O        1.653    -0.354    19.972     6.033
   161   6 C        3.913     0.057    19.562     6.286
   162   6 C        3.775     0.094    19.055     6.220
   163   8 O        1.697    -0.350    19.893     6.022
   164   6 C        3.733     0.110    18.867     6.199
   165   8 O        1.653    -0.507    23.050     6.481
   166   6 C        3.827    -0.089    22.175     6.701
   167   6 C        3.699     0.170    18.013     6.070
   168   7 N        2.849    -0.072    22.638     7.067
   169   6 C        3.178     0.106    25.272     8.208
   170   7 N        1.885    -0.313    28.965     7.978
   171   6 C        3.255     0.018    26.533     8.331
   172   6 C        2.883     0.171    24.326     8.086
   173   7 N        2.640    -0.256    26.659     7.668
   174   7 N        1.842    -0.328    29.361     8.030
   175   6 C        2.963     0.146    24.828     8.173
   176   7 N        1.828    -0.329    29.379     8.032
   177   6 C        3.186     0.138    24.563     8.087
   178   1 H        0.924     0.075     2.031     2.229
   179   1 H        0.924     0.086     1.921     2.167
   180   1 H        0.925     0.096     1.825     2.112
   181   1 H        0.924     0.055     2.264     2.353
   182   1 H        0.924     0.065     2.146     2.291
   183   1 H        0.925     0.086     1.915     2.164
   184   1 H        0.924     0.077     2.013     2.219
   185   1 H        0.925     0.056     2.249     2.345
   186   1 H        0.858     0.246     0.898     1.485
   187   1 H        0.859     0.235     0.945     1.523
   188   1 H        0.925     0.039     2.462     2.454
   189   8 O        1.652    -0.493    22.743     6.438
   190   6 C        3.669     0.054    19.905     6.396
   191   6 C        3.784     0.087    19.149     6.233
   192   8 O        1.699    -0.339    19.691     5.991
   193   6 C        3.897     0.105    18.801     6.164
   194   8 O        1.651    -0.360    20.101     6.052
   195   6 C        3.839    -0.086    22.105     6.689
   196   6 C        3.713     0.176    17.906     6.046
   197   7 N        2.743    -0.063    22.465     7.039
   198   6 C        2.703     0.335    21.310     7.556
   199   8 O        0.859    -0.510    24.015     6.570
   200   7 N        2.694    -0.191    25.136     7.446
   201   6 C        2.763     0.288    22.121     7.702
   202   8 O        0.859    -0.470    23.122     6.447
   203   6 C        2.958    -0.028    28.697     8.787
   204   6 C        3.773    -0.138    23.193     6.862
   205   6 C        2.873     0.020    27.553     8.605
   206   1 H        0.924     0.079     1.992     2.207
   207   1 H        0.924     0.062     2.181     2.310
   208   1 H        0.924     0.073     2.048     2.238
   209   1 H        0.924     0.083     1.950     2.184
   210   1 H        0.925     0.096     1.826     2.113
   211   1 H        0.925     0.070     2.088     2.260
   212   1 H        0.923     0.057     2.229     2.335
   213   1 H        0.854     0.235     0.945     1.523
   214   1 H        0.924     0.086     1.922     2.168
   215   1 H        0.924     0.076     2.018     2.221
   216   1 H        0.925     0.088     1.896     2.153
   217   1 H        0.926     0.119     1.620     1.991
   218  15 P        3.720     0.748   131.081    20.566
   219   8 O        1.614    -0.404    20.955     6.178
   220   8 O        0.808    -0.599    26.135     6.853
   221   8 O        1.651    -0.349    19.889     6.020
   222   6 C        3.893     0.054    19.620     6.297
   223   6 C        3.784     0.095    19.025     6.213
   224   8 O        1.697    -0.329    19.509     5.963
   225   6 C        3.951     0.110    18.714     6.147
   226   8 O        1.653    -0.346    19.836     6.012
   227   6 C        3.824    -0.090    22.192     6.704
   228   6 C        3.733     0.176    17.871     6.034
   229   7 N        2.819    -0.057    22.338     7.020
   230   6 C        3.140     0.097    25.626     8.284
   231   7 N        1.873    -0.286    28.272     7.882
   232   6 C        3.196    -0.007    27.648     8.572
   233   6 C        2.764     0.269    22.455     7.760
   234   8 O        0.858    -0.480    23.348     6.478
   235   7 N        2.698    -0.206    25.490     7.498
   236   6 C        2.839     0.233    23.125     7.881
   237   7 N        2.640    -0.286    27.392     7.773
   238   7 N        1.833    -0.345    29.800     8.089
   239   6 C        3.103     0.134    24.949     8.185
   240   1 H        0.925     0.089     1.887     2.148
   241   1 H        0.924     0.089     1.893     2.151
   242   1 H        0.925     0.101     1.779     2.086
   243   1 H        0.924     0.072     2.066     2.248
   244   1 H        0.925     0.081     1.968     2.194
   245   1 H        0.926     0.084     1.938     2.177
   246   1 H        0.924     0.068     2.113     2.273
   247   1 H        0.925     0.068     2.110     2.271
   248   1 H        0.855     0.226     0.981     1.552
   249   1 H        0.859     0.220     1.011     1.575
   250   1 H        0.860     0.245     0.902     1.488
   251  15 P        3.770     0.781   129.959    20.478
   252   8 O        1.614    -0.405    20.975     6.181
   253   8 O        0.808    -0.604    26.250     6.868
   254   8 O        1.653    -0.370    20.283     6.080
   255   6 C        3.924     0.052    19.648     6.300
   256   6 C        3.883     0.096    18.957     6.190
   257   8 O        1.700    -0.321    19.369     5.942
   258   6 C        3.945     0.108    18.752     6.153
   259   8 O        1.652    -0.357    20.043     6.044
   260   6 C        3.884    -0.096    22.268     6.709
   261   6 C        3.758     0.172    17.889     6.030
   262   7 N        2.848    -0.072    22.628     7.065
   263   6 C        3.176     0.103    25.347     8.222
   264   7 N        1.885    -0.303    28.691     7.941
   265   6 C        3.253     0.019    26.529     8.333
   266   6 C        2.883     0.169    24.371     8.093
   267   7 N        2.641    -0.261    26.761     7.683
   268   7 N        1.842    -0.330    29.416     8.038
   269   6 C        2.963     0.151    24.722     8.155
   270   7 N        1.828    -0.329    29.376     8.031
   271   6 C        3.185     0.139    24.563     8.088
   272   1 H        0.925     0.083     1.949     2.183
   273   1 H        0.924     0.085     1.924     2.169
   274   1 H        0.925     0.105     1.741     2.063
   275   1 H        0.924     0.078     2.003     2.213
   276   1 H        0.925     0.090     1.877     2.143
   277   1 H        0.926     0.089     1.885     2.147
   278   1 H        0.924     0.072     2.062     2.246
   279   1 H        0.926     0.071     2.070     2.250
   280   1 H        0.859     0.240     0.923     1.505
   281   1 H        0.859     0.240     0.925     1.506
   282   1 H        0.925     0.027     2.625     2.534
   283  15 P        3.741     0.771   130.287    20.504
   284   8 O        1.614    -0.388    20.640     6.132
   285   8 O        0.808    -0.584    25.751     6.802
   286   8 O        1.652    -0.361    20.109     6.053
   287   6 C        3.890     0.048    19.722     6.313
   288   6 C        3.840     0.093    19.014     6.203
   289   8 O        1.699    -0.324    19.416     5.949
   290   6 C        3.942     0.106    18.780     6.158
   291   8 O        1.652    -0.357    20.038     6.043
   292   6 C        3.870    -0.091    22.178     6.696
   293   6 C        3.753     0.177    17.820     6.020
   294   7 N        2.746    -0.071    22.615     7.063
   295   6 C        2.701     0.332    21.353     7.563
   296   8 O        0.859    -0.505    23.896     6.554
   297   7 N        2.691    -0.201    25.358     7.479
   298   6 C        2.764     0.282    22.217     7.719
   299   8 O        0.859    -0.466    23.047     6.437
   300   6 C        2.959    -0.035    28.865     8.812
   301   6 C        3.763    -0.135    23.142     6.857
   302   6 C        2.873     0.018    27.597     8.612
   303   1 H        0.924     0.099     1.798     2.097
   304   1 H        0.924     0.088     1.898     2.154
   305   1 H        0.925     0.101     1.777     2.085
   306   1 H        0.924     0.085     1.923     2.169
   307   1 H        0.925     0.093     1.850     2.127
   308   1 H        0.926     0.078     1.998     2.210
   309   1 H        0.924     0.062     2.171     2.304
   310   1 H        0.851     0.234     0.949     1.527
   311   1 H        0.925     0.084     1.933     2.174
   312   1 H        0.925     0.093     1.849     2.126
   313   1 H        0.925     0.068     2.108     2.271
   314   1 H        0.925     0.116     1.643     2.005
   315  15 P        3.750     0.771   130.297    20.505
   316   8 O        1.614    -0.385    20.584     6.124
   317   8 O        0.808    -0.583    25.745     6.801
   318   8 O        1.652    -0.366    20.209     6.068
   319   6 C        3.888     0.048    19.727     6.314
   320   6 C        3.817     0.096    18.980     6.200
   321   8 O        1.698    -0.337    19.655     5.986
   322   6 C        3.901     0.109    18.743     6.154
   323   8 O        1.651    -0.359    20.071     6.048
   324   6 C        3.863    -0.083    22.039     6.676
   325   6 C        3.719     0.179    17.844     6.034
   326   7 N        2.740    -0.073    22.660     7.070
   327   6 C        2.729     0.343    21.170     7.533
   328   8 O        0.861    -0.542    24.726     6.667
   329   7 N        1.836    -0.351    29.982     8.114
   330   6 C        2.855     0.182    24.112     8.048
   331   7 N        2.635    -0.267    26.925     7.707
   332   6 C        2.904    -0.094    30.364     9.035
   333   6 C        2.875     0.045    26.982     8.515
   334   1 H        0.924     0.100     1.787     2.090
   335   1 H        0.924     0.091     1.866     2.136
   336   1 H        0.925     0.100     1.787     2.090
   337   1 H        0.924     0.082     1.962     2.190
   338   1 H        0.925     0.089     1.893     2.152
   339   1 H        0.925     0.070     2.090     2.261
   340   1 H        0.924     0.057     2.235     2.338
   341   1 H        0.859     0.235     0.942     1.521
   342   1 H        0.860     0.231     0.962     1.537
   343   1 H        0.926     0.100     1.785     2.089
   344   1 H        0.926     0.095     1.828     2.114
   345  15 P        3.745     0.762   130.598    20.528
   346   8 O        1.614    -0.381    20.510     6.113
   347   8 O        0.808    -0.585    25.778     6.806
   348   8 O        1.653    -0.371    20.293     6.081
   349   6 C        3.916     0.054    19.620     6.296
   350   6 C        3.776     0.088    19.146     6.234
   351   8 O        1.697    -0.346    19.820     6.011
   352   6 C        3.732     0.109    18.881     6.202
   353   8 O        1.653    -0.503    22.963     6.469
   354   6 C        3.827    -0.083    22.057     6.683
   355   6 C        3.696     0.167    18.064     6.080
   356   7 N        2.848    -0.073    22.654     7.069
   357   6 C        3.177     0.106    25.288     8.211
   358   7 N        1.885    -0.315    29.018     7.986
   359   6 C        3.255     0.018    26.528     8.330
   360   6 C        2.883     0.170    24.345     8.089
   361   7 N        2.641    -0.258    26.708     7.675
   362   7 N        1.842    -0.328    29.352     8.029
   363   6 C        2.963     0.147    24.811     8.170
   364   7 N        1.828    -0.325    29.268     8.017
   365   6 C        3.187     0.139    24.547     8.084
   366   1 H        0.924     0.083     1.948     2.183
   367   1 H        0.924     0.081     1.967     2.193
   368   1 H        0.925     0.093     1.852     2.128
   369   1 H        0.924     0.058     2.222     2.331
   370   1 H        0.805     0.371     0.540     1.155
   371   1 H        0.925     0.064     2.153     2.295
   372   1 H        0.925     0.093     1.853     2.129
   373   1 H        0.924     0.078     2.004     2.214
   374   1 H        0.925     0.057     2.234     2.337
   375   1 H        0.859     0.246     0.899     1.485
   376   1 H        0.860     0.233     0.953     1.529
   377   1 H        0.925     0.040     2.455     2.450
   378   1 H        0.804     0.356     0.574     1.190
   379   1 H        0.804     0.357     0.573     1.189
   380   1 H        0.806     0.376     0.532     1.146
   381   1 H        0.898     0.494     0.339     0.911
   382   1 H        0.898     0.484     0.351     0.927
   383   1 H        0.897     0.461     0.381     0.966
   384   1 H        0.897     0.458     0.386     0.972
   385   1 H        0.897     0.462     0.380     0.965
   386   1 H        0.898     0.460     0.383     0.968
   387   1 H        0.897     0.494     0.339     0.911
   388   1 H        0.897     0.492     0.342     0.915
   389   1 H        0.897     0.495     0.338     0.910
   390   1 H        0.897     0.495     0.338     0.910

 Mol. C6AA /au·bohr⁶  :    1949777.804456
 Mol. C8AA /au·bohr⁸  :   48271504.252697
 Mol. α(0) /au        :       2111.702084


Wiberg/Mayer (AO) data.
largest (>0.10) Wiberg bond orders for each atom

 ---------------------------------------------------------------------------
     #   Z sym  total        # sym  WBO       # sym  WBO       # sym  WBO
 ---------------------------------------------------------------------------
     1   8 O    1.912 --     2 C    1.004   379 H    0.850
     2   6 C    3.954 --     1 O    1.004     3 C    0.977    18 H    0.969
                            19 H    0.969
     3   6 C    3.931 --     2 C    0.977     5 C    0.968    20 H    0.958
                             4 O    0.955
     4   8 O    2.062 --     8 C    0.962     3 C    0.955
     5   6 C    3.921 --     7 C    1.001     3 C    0.968    21 H    0.962
                             6 O    0.913
     6   8 O    2.234 --    30 P    1.104     5 C    0.913
     7   6 C    3.987 --     5 C    1.001     8 C    0.988    23 H    0.963
                            22 H    0.958
     8   6 C    3.933 --     7 C    0.988     4 O    0.962     9 N    0.959
                            24 H    0.953
     9   7 N    3.580 --    17 C    1.157    10 C    1.130     8 C    0.959
                            11 O    0.130
    10   6 C    3.959 --    11 O    1.596    12 N    1.150     9 N    1.130
    11   8 O    1.937 --    10 C    1.596    12 N    0.133     9 N    0.130
    12   7 N    3.523 --    10 C    1.150    13 C    1.145    25 H    0.843
                            14 O    0.140    11 O    0.133
    13   6 C    3.941 --    14 O    1.607    12 N    1.145    15 C    1.092
    14   8 O    1.992 --    13 C    1.607    12 N    0.140
    15   6 C    3.980 --    17 C    1.655    13 C    1.092    16 C    1.017
    16   6 C    3.981 --    15 C    1.017    26 H    0.983    28 H    0.969
                            27 H    0.967
    17   6 C    3.945 --    15 C    1.655     9 N    1.157    29 H    0.945
    18   1 H    0.993 --     2 C    0.969
    19   1 H    0.996 --     2 C    0.969
    20   1 H    0.995 --     3 C    0.958
    21   1 H    0.993 --     5 C    0.962
    22   1 H    0.991 --     7 C    0.958
    23   1 H    0.994 --     7 C    0.963
    24   1 H    0.996 --     8 C    0.953
    25   1 H    0.944 --    12 N    0.843
    26   1 H    0.994 --    16 C    0.983
    27   1 H    0.991 --    16 C    0.967
    28   1 H    0.991 --    16 C    0.969
    29   1 H    0.986 --    17 C    0.945
    30  15 P    5.440 --    32 O    1.780    31 O    1.397     6 O    1.104
                            33 O    1.087
    31   8 O    2.304 --    30 P    1.397   386 H    0.745
    32   8 O    1.980 --    30 P    1.780
    33   8 O    2.214 --    30 P    1.087    34 C    0.930
    34   6 C    3.920 --    35 C    0.984    52 H    0.966    53 H    0.958
                            33 O    0.930
    35   6 C    3.944 --    34 C    0.984    37 C    0.974    36 O    0.968
                            54 H    0.946
    36   8 O    2.063 --    35 C    0.968    40 C    0.959
    37   6 C    3.927 --    39 C    0.997    35 C    0.974    55 H    0.962
                            38 O    0.921
    38   8 O    2.233 --    63 P    1.095    37 C    0.921
    39   6 C    3.988 --    37 C    0.997    40 C    0.985    56 H    0.965
                            57 H    0.955
    40   6 C    3.935 --    39 C    0.985    41 N    0.972    36 O    0.959
                            58 H    0.953
    41   7 N    3.599 --    42 C    1.190    51 C    1.172    40 C    0.972
                            43 N    0.104
    42   6 C    3.944 --    43 N    1.614    41 N    1.190    59 H    0.958
    43   7 N    3.009 --    42 C    1.614    44 C    1.191    41 N    0.104
    44   6 C    3.966 --    51 C    1.335    43 N    1.191    45 C    1.152
    45   6 C    3.952 --    46 O    1.573    44 C    1.152    47 N    1.110
    46   8 O    1.986 --    45 C    1.573    47 N    0.138
    47   7 N    3.506 --    48 C    1.183    45 C    1.110    60 H    0.844
                            46 O    0.138
    48   6 C    3.963 --    50 N    1.402    49 N    1.272    47 N    1.183
    49   7 N    3.345 --    48 C    1.272    62 H    0.924    61 H    0.902
    50   7 N    2.981 --    48 C    1.402    51 C    1.235
    51   6 C    3.958 --    44 C    1.335    50 N    1.235    41 N    1.172
    52   1 H    0.991 --    34 C    0.966
    53   1 H    0.992 --    34 C    0.958
    54   1 H    0.988 --    35 C    0.946
    55   1 H    0.994 --    37 C    0.962
    56   1 H    0.993 --    39 C    0.965
    57   1 H    0.993 --    39 C    0.955
    58   1 H    0.996 --    40 C    0.953
    59   1 H    0.994 --    42 C    0.958
    60   1 H    0.949 --    47 N    0.844
    61   1 H    0.950 --    49 N    0.902
    62   1 H    0.941 --    49 N    0.924
    63  15 P    5.400 --    65 O    1.746    64 O    1.385    66 O    1.107
                            38 O    1.095
    64   8 O    2.267 --    63 P    1.385   387 H    0.721
    65   8 O    1.947 --    63 P    1.746
    66   8 O    2.230 --    63 P    1.107    67 C    0.924
    67   6 C    3.920 --    68 C    0.995    85 H    0.965    84 H    0.964
                            66 O    0.924
    68   6 C    3.946 --    67 C    0.995    70 C    0.972    69 O    0.962
                            86 H    0.944
    69   8 O    2.074 --    73 C    0.974    68 C    0.962
    70   6 C    3.928 --    72 C    1.003    68 C    0.972    87 H    0.960
                            71 O    0.918
    71   8 O    2.228 --    95 P    1.091    70 C    0.918
    72   6 C    3.986 --    70 C    1.003    73 C    0.985    88 H    0.958
                            89 H    0.953
    73   6 C    3.933 --    72 C    0.985    69 O    0.974    90 H    0.953
                            74 N    0.951
    74   7 N    3.591 --    75 C    1.209    83 C    1.159    73 C    0.951
                            76 N    0.109
    75   6 C    3.955 --    76 N    1.601    74 N    1.209    91 H    0.949
    76   7 N    3.009 --    75 C    1.601    77 C    1.193    74 N    0.109
    77   6 C    3.974 --    83 C    1.332    76 N    1.193    78 C    1.190
    78   6 C    3.972 --    79 N    1.342    80 N    1.301    77 C    1.190
    79   7 N    3.430 --    78 C    1.342    93 H    0.922    92 H    0.882
    80   7 N    3.092 --    81 C    1.391    78 C    1.301
    81   6 C    3.971 --    82 N    1.476    80 N    1.391    94 H    0.958
    82   7 N    3.009 --    81 C    1.476    83 C    1.253
    83   6 C    3.961 --    77 C    1.332    82 N    1.253    74 N    1.159
    84   1 H    0.993 --    67 C    0.964
    85   1 H    0.992 --    67 C    0.965
    86   1 H    0.988 --    68 C    0.944
    87   1 H    0.993 --    70 C    0.960
    88   1 H    0.992 --    72 C    0.958
    89   1 H    0.992 --    72 C    0.953
    90   1 H    0.995 --    73 C    0.953
    91   1 H    0.994 --    75 C    0.949
    92   1 H    0.942 --    79 N    0.882
    93   1 H    0.941 --    79 N    0.922
    94   1 H    0.998 --    81 C    0.958
    95  15 P    5.405 --    97 O    1.744    96 O    1.382    98 O    1.124
                            71 O    1.091
    96   8 O    2.264 --    95 P    1.382   388 H    0.723
    97   8 O    1.947 --    95 P    1.744
    98   8 O    2.243 --    95 P    1.124    99 C    0.927
    99   6 C    3.917 --   100 C    0.991   116 H    0.966   115 H    0.964
                            98 O    0.927
   100   6 C    3.941 --    99 C    0.991   102 C    0.972   101 O    0.957
                           117 H    0.947
   101   8 O    2.064 --   105 C    0.973   100 C    0.957
   102   6 C    3.925 --   104 C    1.002   100 C    0.972   118 H    0.958
                           103 O    0.918
   103   8 O    2.229 --   127 P    1.093   102 C    0.918
   104   6 C    3.987 --   102 C    1.002   105 C    0.989   119 H    0.959
                           120 H    0.959
   105   6 C    3.934 --   104 C    0.989   101 O    0.973   121 H    0.953
                           106 N    0.950
   106   7 N    3.561 --   114 C    1.150   107 C    1.127   105 C    0.950
                           108 O    0.130
   107   6 C    3.958 --   108 O    1.601   109 N    1.147   106 N    1.127
   108   8 O    1.944 --   107 C    1.601   109 N    0.133   106 N    0.130
   109   7 N    3.520 --   107 C    1.147   110 C    1.143   122 H    0.838
                           111 O    0.142   108 O    0.133
   110   6 C    3.941 --   111 O    1.616   109 N    1.143   112 C    1.085
   111   8 O    2.000 --   110 C    1.616   109 N    0.142
   112   6 C    3.982 --   114 C    1.655   110 C    1.085   113 C    1.027
   113   6 C    3.981 --   112 C    1.027   124 H    0.976   125 H    0.962
                           123 H    0.960
   114   6 C    3.947 --   112 C    1.655   106 N    1.150   126 H    0.939
   115   1 H    0.991 --    99 C    0.964
   116   1 H    0.991 --    99 C    0.966
   117   1 H    0.989 --   100 C    0.947
   118   1 H    0.992 --   102 C    0.958
   119   1 H    0.991 --   104 C    0.959
   120   1 H    0.994 --   104 C    0.959
   121   1 H    0.996 --   105 C    0.953
   122   1 H    0.944 --   109 N    0.838
   123   1 H    0.994 --   113 C    0.960
   124   1 H    0.992 --   113 C    0.976
   125   1 H    0.990 --   113 C    0.962
   126   1 H    0.986 --   114 C    0.939
   127  15 P    5.403 --   129 O    1.743   128 O    1.384   130 O    1.120
                           103 O    1.093
   128   8 O    2.264 --   127 P    1.384   389 H    0.721
   129   8 O    1.947 --   127 P    1.743
   130   8 O    2.237 --   127 P    1.120   131 C    0.926
   131   6 C    3.916 --   132 C    0.988   146 H    0.966   147 H    0.965
                           130 O    0.926
   132   6 C    3.942 --   131 C    0.988   134 C    0.972   133 O    0.959
                           148 H    0.950
   133   8 O    2.054 --   137 C    0.964   132 C    0.959
   134   6 C    3.926 --   136 C    1.003   132 C    0.972   149 H    0.960
                           135 O    0.918
   135   8 O    2.225 --   157 P    1.089   134 C    0.918
   136   6 C    3.987 --   134 C    1.003   137 C    0.983   151 H    0.962
                           150 H    0.957
   137   6 C    3.935 --   136 C    0.983   133 O    0.964   138 N    0.959
                           152 H    0.957
   138   7 N    3.593 --   145 C    1.223   139 C    1.074   137 C    0.959
                           140 O    0.113
   139   6 C    3.950 --   140 O    1.545   141 N    1.238   138 N    1.074
   140   8 O    1.918 --   139 C    1.545   141 N    0.120   138 N    0.113
   141   7 N    3.082 --   142 C    1.363   139 C    1.238   140 O    0.120
                           143 N    0.109
   142   6 C    3.965 --   141 N    1.363   143 N    1.322   144 C    1.181
   143   7 N    3.407 --   142 C    1.322   154 H    0.927   153 H    0.868
                           141 N    0.109
   144   6 C    3.974 --   145 C    1.625   142 C    1.181   155 H    0.959
   145   6 C    3.954 --   144 C    1.625   138 N    1.223   156 H    0.944
   146   1 H    0.991 --   131 C    0.966
   147   1 H    0.990 --   131 C    0.965
   148   1 H    0.990 --   132 C    0.950
   149   1 H    0.993 --   134 C    0.960
   150   1 H    0.992 --   136 C    0.957
   151   1 H    0.995 --   136 C    0.962
   152   1 H    0.997 --   137 C    0.957
   153   1 H    0.941 --   143 N    0.868
   154   1 H    0.943 --   143 N    0.927
   155   1 H    0.989 --   144 C    0.959
   156   1 H    0.990 --   145 C    0.944
   157  15 P    5.411 --   159 O    1.748   158 O    1.386   160 O    1.120
                           135 O    1.089
   158   8 O    2.269 --   157 P    1.386   390 H    0.720
   159   8 O    1.950 --   157 P    1.748
   160   8 O    2.235 --   157 P    1.120   161 C    0.923
   161   6 C    3.917 --   162 C    0.987   178 H    0.967   179 H    0.967
                           160 O    0.923
   162   6 C    3.940 --   161 C    0.987   164 C    0.975   163 O    0.957
                           180 H    0.949
   163   8 O    2.058 --   167 C    0.968   162 C    0.957
   164   6 C    3.963 --   166 C    0.993   165 O    0.990   162 C    0.975
                           181 H    0.959
   165   8 O    1.904 --   164 C    0.990   380 H    0.843
   166   6 C    3.987 --   164 C    0.993   167 C    0.980   182 H    0.971
                           183 H    0.968
   167   6 C    3.927 --   166 C    0.980   163 O    0.968   168 N    0.956
                           184 H    0.956
   168   7 N    3.597 --   169 C    1.217   177 C    1.155   167 C    0.956
                           170 N    0.110
   169   6 C    3.957 --   170 N    1.596   168 N    1.217   185 H    0.954
   170   7 N    3.002 --   169 C    1.596   171 C    1.190   168 N    0.110
   171   6 C    3.972 --   177 C    1.331   172 C    1.191   170 N    1.190
   172   6 C    3.974 --   173 N    1.343   174 N    1.301   171 C    1.191
   173   7 N    3.429 --   172 C    1.343   187 H    0.926   186 H    0.874
   174   7 N    3.085 --   175 C    1.395   172 C    1.301
   175   6 C    3.970 --   176 N    1.472   174 N    1.395   188 H    0.957
   176   7 N    3.010 --   175 C    1.472   177 C    1.257
   177   6 C    3.958 --   171 C    1.331   176 N    1.257   168 N    1.155
   178   1 H    0.994 --   161 C    0.967
   179   1 H    0.993 --   161 C    0.967
   180   1 H    0.990 --   162 C    0.949
   181   1 H    0.997 --   164 C    0.959
   182   1 H    0.996 --   166 C    0.971
   183   1 H    0.993 --   166 C    0.968
   184   1 H    0.994 --   167 C    0.956
   185   1 H    0.996 --   169 C    0.954
   186   1 H    0.939 --   173 N    0.874
   187   1 H    0.945 --   173 N    0.926
   188   1 H    0.998 --   175 C    0.957
   189   8 O    1.912 --   190 C    1.004   378 H    0.849
   190   6 C    3.953 --   189 O    1.004   191 C    0.976   206 H    0.969
                           207 H    0.968
   191   6 C    3.931 --   190 C    0.976   193 C    0.968   208 H    0.959
                           192 O    0.954
   192   8 O    2.061 --   196 C    0.962   191 C    0.954
   193   6 C    3.920 --   195 C    1.002   191 C    0.968   209 H    0.961
                           194 O    0.913
   194   8 O    2.232 --   218 P    1.101   193 C    0.913
   195   6 C    3.987 --   193 C    1.002   196 C    0.987   211 H    0.964
                           210 H    0.958
   196   6 C    3.934 --   195 C    0.987   192 O    0.962   197 N    0.960
                           212 H    0.954
   197   7 N    3.580 --   205 C    1.156   198 C    1.131   196 C    0.960
                           199 O    0.130
   198   6 C    3.959 --   199 O    1.595   200 N    1.150   197 N    1.131
   199   8 O    1.937 --   198 C    1.595   200 N    0.133   197 N    0.130
   200   7 N    3.523 --   198 C    1.150   201 C    1.144   213 H    0.845
                           202 O    0.140   199 O    0.133
   201   6 C    3.941 --   202 O    1.607   200 N    1.144   203 C    1.092
   202   8 O    1.994 --   201 C    1.607   200 N    0.140
   203   6 C    3.980 --   205 C    1.655   201 C    1.092   204 C    1.017
   204   6 C    3.980 --   203 C    1.017   215 H    0.983   214 H    0.969
                           216 H    0.967
   205   6 C    3.945 --   203 C    1.655   197 N    1.156   217 H    0.945
   206   1 H    0.994 --   190 C    0.969
   207   1 H    0.996 --   190 C    0.968
   208   1 H    0.995 --   191 C    0.959
   209   1 H    0.993 --   193 C    0.961
   210   1 H    0.990 --   195 C    0.958
   211   1 H    0.995 --   195 C    0.964
   212   1 H    0.996 --   196 C    0.954
   213   1 H    0.944 --   200 N    0.845
   214   1 H    0.991 --   204 C    0.969
   215   1 H    0.994 --   204 C    0.983
   216   1 H    0.991 --   204 C    0.967
   217   1 H    0.986 --   205 C    0.945
   218  15 P    5.426 --   220 O    1.750   219 O    1.387   221 O    1.118
                           194 O    1.101
   219   8 O    2.269 --   218 P    1.387   381 H    0.721
   220   8 O    1.954 --   218 P    1.750
   221   8 O    2.234 --   218 P    1.118   222 C    0.928
   222   6 C    3.919 --   223 C    0.984   240 H    0.967   241 H    0.966
                           221 O    0.928
   223   6 C    3.944 --   222 C    0.984   225 C    0.974   224 O    0.967
                           242 H    0.947
   224   8 O    2.063 --   223 C    0.967   228 C    0.960
   225   6 C    3.925 --   227 C    0.996   223 C    0.974   243 H    0.962
                           226 O    0.918
   226   8 O    2.239 --   251 P    1.112   225 C    0.918
   227   6 C    3.987 --   225 C    0.996   228 C    0.985   244 H    0.965
                           245 H    0.953
   228   6 C    3.936 --   227 C    0.985   229 N    0.972   224 O    0.960
                           246 H    0.953
   229   7 N    3.602 --   230 C    1.192   239 C    1.173   228 C    0.972
                           231 N    0.104
   230   6 C    3.944 --   231 N    1.614   229 N    1.192   247 H    0.957
   231   7 N    3.009 --   230 C    1.614   232 C    1.191   229 N    0.104
   232   6 C    3.966 --   239 C    1.334   231 N    1.191   233 C    1.153
   233   6 C    3.952 --   234 O    1.571   232 C    1.153   235 N    1.110
   234   8 O    1.989 --   233 C    1.571   235 N    0.138
   235   7 N    3.507 --   236 C    1.184   233 C    1.110   248 H    0.845
                           234 O    0.138
   236   6 C    3.964 --   238 N    1.405   237 N    1.267   235 N    1.184
   237   7 N    3.333 --   236 C    1.267   250 H    0.921   249 H    0.902
   238   7 N    2.983 --   236 C    1.405   239 C    1.235
   239   6 C    3.957 --   232 C    1.334   238 N    1.235   229 N    1.173
   240   1 H    0.992 --   222 C    0.967
   241   1 H    0.992 --   222 C    0.966
   242   1 H    0.989 --   223 C    0.947
   243   1 H    0.994 --   225 C    0.962
   244   1 H    0.993 --   227 C    0.965
   245   1 H    0.993 --   227 C    0.953
   246   1 H    0.995 --   228 C    0.953
   247   1 H    0.994 --   230 C    0.957
   248   1 H    0.948 --   235 N    0.845
   249   1 H    0.951 --   237 N    0.902
   250   1 H    0.939 --   237 N    0.921
   251  15 P    5.380 --   253 O    1.747   252 O    1.364   226 O    1.112
                           254 O    1.078
   252   8 O    2.254 --   251 P    1.364   382 H    0.727
   253   8 O    1.953 --   251 P    1.747
   254   8 O    2.212 --   251 P    1.078   255 C    0.926
   255   6 C    3.921 --   256 C    0.993   272 H    0.965   273 H    0.963
                           254 O    0.926
   256   6 C    3.946 --   255 C    0.993   258 C    0.973   257 O    0.963
                           274 H    0.944
   257   8 O    2.075 --   261 C    0.974   256 C    0.963
   258   6 C    3.928 --   260 C    1.003   256 C    0.973   275 H    0.958
                           259 O    0.918
   259   8 O    2.230 --   283 P    1.093   258 C    0.918
   260   6 C    3.986 --   258 C    1.003   261 C    0.986   276 H    0.956
                           277 H    0.953
   261   6 C    3.932 --   260 C    0.986   257 O    0.974   278 H    0.953
                           262 N    0.950
   262   7 N    3.592 --   263 C    1.211   271 C    1.159   261 C    0.950
                           264 N    0.109
   263   6 C    3.955 --   264 N    1.600   262 N    1.211   279 H    0.947
   264   7 N    3.008 --   263 C    1.600   265 C    1.193   262 N    0.109
   265   6 C    3.974 --   271 C    1.331   264 N    1.193   266 C    1.191
   266   6 C    3.973 --   267 N    1.339   268 N    1.303   265 C    1.191
   267   7 N    3.426 --   266 C    1.339   281 H    0.924   280 H    0.879
   268   7 N    3.090 --   269 C    1.390   266 C    1.303
   269   6 C    3.971 --   270 N    1.478   268 N    1.390   282 H    0.958
   270   7 N    3.012 --   269 C    1.478   271 C    1.255
   271   6 C    3.961 --   265 C    1.331   270 N    1.255   262 N    1.159
   272   1 H    0.993 --   255 C    0.965
   273   1 H    0.993 --   255 C    0.963
   274   1 H    0.987 --   256 C    0.944
   275   1 H    0.994 --   258 C    0.958
   276   1 H    0.991 --   260 C    0.956
   277   1 H    0.992 --   260 C    0.953
   278   1 H    0.995 --   261 C    0.953
   279   1 H    0.994 --   263 C    0.947
   280   1 H    0.942 --   267 N    0.879
   281   1 H    0.942 --   267 N    0.924
   282   1 H    0.999 --   269 C    0.958
   283  15 P    5.412 --   285 O    1.776   284 O    1.386   259 O    1.093
                           286 O    1.092
   284   8 O    2.292 --   283 P    1.386   383 H    0.747
   285   8 O    1.975 --   283 P    1.776
   286   8 O    2.221 --   283 P    1.092   287 C    0.928
   287   6 C    3.919 --   288 C    0.991   303 H    0.963   304 H    0.960
                           286 O    0.928
   288   6 C    3.941 --   287 C    0.991   290 C    0.972   289 O    0.958
                           305 H    0.947
   289   8 O    2.065 --   293 C    0.973   288 C    0.958
   290   6 C    3.925 --   292 C    1.002   288 C    0.972   306 H    0.957
                           291 O    0.918
   291   8 O    2.231 --   315 P    1.095   290 C    0.918
   292   6 C    3.987 --   290 C    1.002   293 C    0.989   307 H    0.959
                           308 H    0.958
   293   6 C    3.934 --   292 C    0.989   289 O    0.973   309 H    0.953
                           294 N    0.950
   294   7 N    3.564 --   302 C    1.152   295 C    1.129   293 C    0.950
                           296 O    0.130
   295   6 C    3.958 --   296 O    1.600   297 N    1.147   294 N    1.129
   296   8 O    1.942 --   295 C    1.600   297 N    0.133   294 N    0.130
   297   7 N    3.519 --   295 C    1.147   298 C    1.144   310 H    0.836
                           299 O    0.142   296 O    0.133
   298   6 C    3.941 --   299 O    1.616   297 N    1.144   300 C    1.085
   299   8 O    1.999 --   298 C    1.616   297 N    0.142
   300   6 C    3.982 --   302 C    1.653   298 C    1.085   301 C    1.027
   301   6 C    3.981 --   300 C    1.027   311 H    0.976   312 H    0.962
                           313 H    0.961
   302   6 C    3.947 --   300 C    1.653   294 N    1.152   314 H    0.939
   303   1 H    0.990 --   287 C    0.963
   304   1 H    0.992 --   287 C    0.960
   305   1 H    0.988 --   288 C    0.947
   306   1 H    0.992 --   290 C    0.957
   307   1 H    0.991 --   292 C    0.959
   308   1 H    0.994 --   292 C    0.958
   309   1 H    0.995 --   293 C    0.953
   310   1 H    0.944 --   297 N    0.836
   311   1 H    0.992 --   301 C    0.976
   312   1 H    0.990 --   301 C    0.962
   313   1 H    0.994 --   301 C    0.961
   314   1 H    0.986 --   302 C    0.939
   315  15 P    5.414 --   317 O    1.775   316 O    1.389   291 O    1.095
                           318 O    1.090
   316   8 O    2.295 --   315 P    1.389   384 H    0.745
   317   8 O    1.975 --   315 P    1.775
   318   8 O    2.218 --   315 P    1.090   319 C    0.928
   319   6 C    3.918 --   320 C    0.987   334 H    0.964   335 H    0.957
                           318 O    0.928
   320   6 C    3.942 --   319 C    0.987   322 C    0.972   321 O    0.960
                           336 H    0.949
   321   8 O    2.058 --   325 C    0.966   320 C    0.960
   322   6 C    3.927 --   324 C    1.003   320 C    0.972   337 H    0.959
                           323 O    0.919
   323   8 O    2.226 --   345 P    1.089   322 C    0.919
   324   6 C    3.987 --   322 C    1.003   325 C    0.983   339 H    0.962
                           338 H    0.957
   325   6 C    3.934 --   324 C    0.983   321 O    0.966   326 N    0.957
                           340 H    0.957
   326   7 N    3.596 --   333 C    1.226   327 C    1.076   325 C    0.957
                           328 O    0.113
   327   6 C    3.950 --   328 O    1.545   329 N    1.237   326 N    1.076
   328   8 O    1.917 --   327 C    1.545   329 N    0.119   326 N    0.113
   329   7 N    3.085 --   330 C    1.367   327 C    1.237   328 O    0.119
                           331 N    0.107
   330   6 C    3.964 --   329 N    1.367   331 N    1.312   332 C    1.184
   331   7 N    3.398 --   330 C    1.312   342 H    0.929   341 H    0.874
                           329 N    0.107
   332   6 C    3.975 --   333 C    1.623   330 C    1.184   343 H    0.959
   333   6 C    3.955 --   332 C    1.623   326 N    1.226   344 H    0.943
   334   1 H    0.990 --   319 C    0.964
   335   1 H    0.991 --   319 C    0.957
   336   1 H    0.989 --   320 C    0.949
   337   1 H    0.993 --   322 C    0.959
   338   1 H    0.992 --   324 C    0.957
   339   1 H    0.995 --   324 C    0.962
   340   1 H    0.996 --   325 C    0.957
   341   1 H    0.944 --   331 N    0.874
   342   1 H    0.946 --   331 N    0.929
   343   1 H    0.989 --   332 C    0.959
   344   1 H    0.990 --   333 C    0.943
   345  15 P    5.421 --   347 O    1.780   346 O    1.393   348 O    1.090
                           323 O    1.089
   346   8 O    2.299 --   345 P    1.393   385 H    0.742
   347   8 O    1.977 --   345 P    1.780
   348   8 O    2.216 --   345 P    1.090   349 C    0.925
   349   6 C    3.917 --   350 C    0.985   366 H    0.966   367 H    0.957
                           348 O    0.925
   350   6 C    3.939 --   349 C    0.985   352 C    0.969   351 O    0.958
                           368 H    0.948
   351   8 O    2.061 --   355 C    0.971   350 C    0.958
   352   6 C    3.962 --   354 C    0.997   353 O    0.992   350 C    0.969
                           369 H    0.957
   353   8 O    1.911 --   352 C    0.992   370 H    0.845
   354   6 C    3.987 --   352 C    0.997   355 C    0.980   371 H    0.971
                           372 H    0.969
   355   6 C    3.927 --   354 C    0.980   351 O    0.971   373 H    0.957
                           356 N    0.953
   356   7 N    3.595 --   357 C    1.217   365 C    1.155   355 C    0.953
                           358 N    0.111
   357   6 C    3.957 --   358 N    1.596   356 N    1.217   374 H    0.953
   358   7 N    3.001 --   357 C    1.596   359 C    1.189   356 N    0.111
   359   6 C    3.972 --   365 C    1.331   360 C    1.192   358 N    1.189
   360   6 C    3.974 --   361 N    1.338   362 N    1.304   359 C    1.192
   361   7 N    3.426 --   360 C    1.338   376 H    0.928   375 H    0.876
   362   7 N    3.086 --   363 C    1.393   360 C    1.304
   363   6 C    3.969 --   364 N    1.474   362 N    1.393   377 H    0.957
   364   7 N    3.013 --   363 C    1.474   365 C    1.259
   365   6 C    3.959 --   359 C    1.331   364 N    1.259   356 N    1.155
   366   1 H    0.993 --   349 C    0.966
   367   1 H    0.993 --   349 C    0.957
   368   1 H    0.990 --   350 C    0.948
   369   1 H    0.996 --   352 C    0.957
   370   1 H    0.862 --   353 O    0.845
   371   1 H    0.996 --   354 C    0.971
   372   1 H    0.991 --   354 C    0.969
   373   1 H    0.994 --   355 C    0.957
   374   1 H    0.996 --   357 C    0.953
   375   1 H    0.939 --   361 N    0.876
   376   1 H    0.946 --   361 N    0.928
   377   1 H    0.998 --   363 C    0.957
   378   1 H    0.873 --   189 O    0.849
   379   1 H    0.873 --     1 O    0.850
   380   1 H    0.859 --   165 O    0.843
   381   1 H    0.756 --   219 O    0.721
   382   1 H    0.765 --   252 O    0.727
   383   1 H    0.788 --   284 O    0.747
   384   1 H    0.791 --   316 O    0.745
   385   1 H    0.787 --   346 O    0.742
   386   1 H    0.789 --    31 O    0.745
   387   1 H    0.756 --    64 O    0.721
   388   1 H    0.758 --    96 O    0.723
   389   1 H    0.755 --   128 O    0.721
   390   1 H    0.755 --   158 O    0.720
 ---------------------------------------------------------------------------

Topologies differ in total number of bonds
Writing topology from bond orders to xtbtopo.mol

molecular dipole:
                 x           y           z       tot (Debye)
 q only:        4.678      10.055       0.982
   full:        4.850      13.446       1.403      36.507
molecular quadrupole (traceless):
                xx          xy          yy          xz          yz          zz
 q only:      183.392      51.521     179.187    -129.908     240.653    -362.579
  q+dip:      190.817      57.068     201.920    -169.997     326.523    -392.737
   full:      177.413      57.426     190.140    -170.051     326.448    -367.553


           -------------------------------------------------
          | TOTAL ENERGY             -762.121300285906 Eh   |
          | GRADIENT NORM               0.492656943637 Eh/α |
          | HOMO-LUMO GAP               2.647317562031 eV   |
           -------------------------------------------------
########################################################################
[WARNING] Runtime exception occurred
-2- restart_readRestart: Dimension missmatch in restart file.
-1- restart_readRestart: Number of electron missmatch in restart file.
########################################################################

------------------------------------------------------------------------
 * finished run on 2023/03/09 at 13:52:06.662     
------------------------------------------------------------------------
 total:
 * wall-time:     0 d,  0 h,  0 min,  3.073 sec
 *  cpu-time:     0 d,  0 h,  0 min, 29.545 sec
 * ratio c/w:     9.613 speedup
 SCF:
 * wall-time:     0 d,  0 h,  0 min,  2.739 sec
 *  cpu-time:     0 d,  0 h,  0 min, 26.905 sec
 * ratio c/w:     9.823 speedup

