      -----------------------------------------------------------      
     |                   =====================                   |     
     |                           x T B                           |     
     |                   =====================                   |     
     |                         S. Grimme                         |     
     |          Mulliken Center for Theoretical Chemistry        |     
     |                    University of Bonn                     |     
      -----------------------------------------------------------      

   * xtb version 6.5.1 (579679a) compiled by 'ehlert@majestix' on 2022-07-11

   xtb is free software: you can redistribute it and/or modify it under
   the terms of the GNU Lesser General Public License as published by
   the Free Software Foundation, either version 3 of the License, or
   (at your option) any later version.
   
   xtb is distributed in the hope that it will be useful,
   but WITHOUT ANY WARRANTY; without even the implied warranty of
   MERCHANTABILITY or FITNESS FOR A PARTICULAR PURPOSE.  See the
   GNU Lesser General Public License for more details.
   
   Cite this work as:
   * C. Bannwarth, E. Caldeweyher, S. Ehlert, A. Hansen, P. Pracht,
     J. Seibert, S. Spicher, S. Grimme, WIREs Comput. Mol. Sci., 2020, 11,
     e01493. DOI: 10.1002/wcms.1493
   
   for GFN2-xTB:
   * C. Bannwarth, S. Ehlert and S. Grimme., J. Chem. Theory Comput., 2019,
     15, 1652-1671. DOI: 10.1021/acs.jctc.8b01176
   for GFN1-xTB:
   * S. Grimme, C. Bannwarth, P. Shushkov, J. Chem. Theory Comput., 2017,
     13, 1989-2009. DOI: 10.1021/acs.jctc.7b00118
   for GFN0-xTB:
   * P. Pracht, E. Caldeweyher, S. Ehlert, S. Grimme, ChemRxiv, 2019, preprint.
     DOI: 10.26434/chemrxiv.8326202.v1
   for GFN-FF:
   * S. Spicher and S. Grimme, Angew. Chem. Int. Ed., 2020, 59, 15665-15673.
     DOI: 10.1002/anie.202004239
   
   for ALPB and GBSA implicit solvation:
   * S. Ehlert, M. Stahn, S. Spicher, S. Grimme, J. Chem. Theory Comput.,
     2021, 17, 4250-4261. DOI: 10.1021/acs.jctc.1c00471
   
   for DFT-D4:
   * E. Caldeweyher, C. Bannwarth and S. Grimme, J. Chem. Phys., 2017,
     147, 034112. DOI: 10.1063/1.4993215
   * E. Caldeweyher, S. Ehlert, A. Hansen, H. Neugebauer, S. Spicher,
     C. Bannwarth and S. Grimme, J. Chem. Phys., 2019, 150, 154122.
     DOI: 10.1063/1.5090222
   * E. Caldeweyher, J.-M. Mewes, S. Ehlert and S. Grimme, Phys. Chem. Chem. Phys.
     2020, 22, 8499-8512. DOI: 10.1039/D0CP00502A
   
   for sTDA-xTB:
   * S. Grimme and C. Bannwarth, J. Chem. Phys., 2016, 145, 054103.
     DOI: 10.1063/1.4959605
   
   in the mass-spec context:
   * V. Asgeirsson, C. Bauer and S. Grimme, Chem. Sci., 2017, 8, 4879.
     DOI: 10.1039/c7sc00601b
   * J. Koopman and S. Grimme, ACS Omega 2019, 4, 12, 15120-15133.
     DOI: 10.1021/acsomega.9b02011
   
   for metadynamics refer to:
   * S. Grimme, J. Chem. Theory Comput., 2019, 155, 2847-2862
     DOI: 10.1021/acs.jctc.9b00143
   
   for SPH calculations refer to:
   * S. Spicher and S. Grimme, J. Chem. Theory Comput., 2021, 17, 1701-1714
     DOI: 10.1021/acs.jctc.0c01306
   
   with help from (in alphabetical order)
   P. Atkinson, C. Bannwarth, F. Bohle, G. Brandenburg, E. Caldeweyher
   M. Checinski, S. Dohm, S. Ehlert, S. Ehrlich, I. Gerasimov, C. Hölzer
   A. Katbashev, J. Koopman, C. Lavigne, S. Lehtola, F. März, M. Müller,
   F. Musil, H. Neugebauer, J. Pisarek, C. Plett, P. Pracht, F. Pultar,
   J. Seibert, P. Shushkov, S. Spicher, M. Stahn, M. Steiner, T. Strunk,
   J. Stückrath, T. Rose, and J. Unsleber
   
 * started run on 2023/03/20 at 14:29:24.440     

           -------------------------------------------------
          |                Calculation Setup                |
           -------------------------------------------------

          program call               : /N/u/schandy/BigRed3/bin/xtb-6.5.1/bin/xtb 1js7_min.xyz --gbsa water
          hostname                   : nid00388
          coordinate file            : 1js7_min.xyz
          omp threads                :                    10

   ID    Z sym.   atoms
    1    8 O      1, 4, 6, 14, 33-35, 38, 40, 45, 63-65, 68, 70, 95-97, 100,
                  102, 107, 110, 127-129, 132, 134, 139, 157-159, 162, 164,
                  172, 190-192, 195, 197, 222-224, 227, 229, 254-256, 259,
                  261, 266, 269, 283-285, 288, 290, 315-317, 320, 322,
                  347-349, 352, 354, 362, 380-382, 385, 387, 392, 410-412,
                  415, 417, 422, 425, 442-444, 447, 449, 474-476, 479, 481,
                  486, 504-506, 509, 511, 519, 537, 540, 542, 547, 566-568,
                  571, 573, 581, 599-601, 604, 606, 611, 614, 631-633, 636,
                  638, 663-665, 668, 670, 678, 696-698, 701, 703, 708,
                  726-728, 731, 733, 738, 756-758, 761, 763, 771, 789-791,
                  794, 796, 821-823, 826, 828, 833, 836, 853-855, 858, 860,
                  868, 886-888, 891, 893, 898
    2    6 C      2, 3, 5, 7, 8, 10, 12, 13, 16, 19, 36, 37, 39, 41, 42, 44,
                  47, 49, 50, 66, 67, 69, 71, 72, 74, 76, 77, 80, 82, 98, 99,
                  101, 103, 104, 106, 109, 111-113, 130, 131, 133, 135, 136,
                  138, 141, 143, 144, 160, 161, 163, 165, 166, 168, 170, 171,
                  174, 177, 193, 194, 196, 198, 199, 201, 203, 204, 207, 209,
                  225, 226, 228, 230, 231, 233, 235, 236, 239, 241, 257, 258,
                  260, 262, 263, 265, 268, 270, 271, 286, 287, 289, 291, 292,
                  294, 296, 297, 300, 302, 318, 319, 321, 323, 324, 326, 328,
                  329, 332, 334, 350, 351, 353, 355, 356, 358, 360, 361, 364,
                  367, 383, 384, 386, 388, 389, 391, 394, 396, 397, 413, 414,
                  416, 418, 419, 421, 424, 426-428, 445, 446, 448, 450, 451,
                  453, 455, 456, 459, 461, 477, 478, 480, 482, 483, 485, 488,
                  490, 491, 507, 508, 510, 512, 513, 515, 517, 518, 521, 524,
                  538, 539, 541, 543, 544, 546, 549, 551, 552, 569, 570, 572,
                  574, 575, 577, 579, 580, 583, 586, 602, 603, 605, 607, 608,
                  610, 613, 615-617, 634, 635, 637, 639, 640, 642, 644, 645,
                  648, 650, 666, 667, 669, 671, 672, 674, 676, 677, 680, 683,
                  699, 700, 702, 704, 705, 707, 710, 712, 713, 729, 730, 732,
                  734, 735, 737, 740, 742, 743, 759, 760, 762, 764, 765, 767,
                  769, 770, 773, 776, 792, 793, 795, 797, 798, 800, 802, 803,
                  806, 808, 824, 825, 827, 829, 830, 832, 835, 837-839, 856,
                  857, 859, 861, 862, 864, 866, 867, 870, 873, 889, 890, 892,
                  894, 895, 897, 900, 902, 903
    3    7 N      9, 11, 15, 17, 18, 43, 46, 48, 73, 75, 78, 79, 81, 105,
                  108, 137, 140, 142, 167, 169, 173, 175, 176, 200, 202, 205,
                  206, 208, 232, 234, 237, 238, 240, 264, 267, 293, 295, 298,
                  299, 301, 325, 327, 330, 331, 333, 357, 359, 363, 365, 366,
                  390, 393, 395, 420, 423, 452, 454, 457, 458, 460, 484, 487,
                  489, 514, 516, 520, 522, 523, 545, 548, 550, 576, 578, 582,
                  584, 585, 609, 612, 641, 643, 646, 647, 649, 673, 675, 679,
                  681, 682, 706, 709, 711, 736, 739, 741, 766, 768, 772, 774,
                  775, 799, 801, 804, 805, 807, 831, 834, 863, 865, 869, 871,
                  872, 896, 899, 901
    4    1 H      20-31, 51-61, 83-93, 114-125, 145-155, 178-188, 210-220,
                  242-252, 272-281, 303-313, 335-345, 368-378, 398-408,
                  429-440, 462-472, 492-502, 525-536, 553-564, 587-597,
                  618-629, 651-661, 684-694, 714-724, 744-754, 777-787,
                  809-819, 840-851, 874-884, 904-915
    5   15 P      32, 62, 94, 126, 156, 189, 221, 253, 282, 314, 346, 379,
                  409, 441, 473, 503, 565, 598, 630, 662, 695, 725, 755, 788,
                  820, 852, 885

molecular fragmentation (1/2 indicates fragments):
111111111111111111111111111111111111111111111111111111111111111111111111
111111111111111111111111111111111111111111111111111111111111111111111111
111111111111111111111111111111111111111111111111111111111111111111111111
111111111111111111111111111111111111111111111111111111111111111111111111
111111111111111111111111111111111111111111111111111111111111111111111111
111111111111111111111111111111111111111111111111111111111111111111111111
111111111111111111111111111111111111111111111111111111111111111111111111
111111111111111111111111111111112222222222222222222222222222222222222222
222222222222222222222222222222222222222222222222222222222222222222222222
222222222222222222222222222222222222222222222222222222222222222222222222
222222222222222222222222222222222222222222222222222222222222222222222222
222222222222222222222222222222222222222222222222222222222222222222222222
222222222222222222222222222222222222222222222222222
# atoms in fragment 1/2:   536   379
 fragment masses (1/2) :     5173.26     3635.30
CMA distance (Bohr)    :   6.620
constraining FC (au)   :  0.0500

           -------------------------------------------------
          |                 G F N 2 - x T B                 |
           -------------------------------------------------

        Reference                      10.1021/acs.jctc.8b01176
      * Hamiltonian:
        H0-scaling (s, p, d)           1.850000    2.230000    2.230000
        zeta-weighting                 0.500000
      * Dispersion:
        s8                             2.700000
        a1                             0.520000
        a2                             5.000000
        s9                             5.000000
      * Repulsion:
        kExp                           1.500000    1.000000
        rExp                           1.000000
      * Coulomb:
        alpha                          2.000000
        third order                    shell-resolved
        anisotropic                    true
        a3                             3.000000
        a5                             4.000000
        cn-shift                       1.200000
        cn-exp                         4.000000
        max-rad                        5.000000

      * Solvation model:               GBSA
        Solvent                        water
        Parameter file                 internal GFN2-xTB/GBSA
        Dielectric constant                8.0200E+01
        Reference state                gsolv [1 M gas/solution]
        Free energy shift                  1.8574E-03 Eh       1.1656E+00 kcal/mol
        Temperature                        2.9815E+02 K
        Density                            1.0000E+00 kg/L
        Solvent mass                       1.8000E+01 g/mol
        Interaction kernel             Still
        Born radius scaling (c1)           1.5524E+00
        Born radii integrator          GBOBC
        Born offset                        2.4628E-02 a0       4.6540E-02 AA
        H-bond correction              true
        Ion screening                  false
        Surface tension                    1.0000E-05 Eh       1.5569E+01 dyn/cm
        Grid points                               230 per atom
q/qsh data taken from xtbrestart
CAMM data taken from xtbrestart

          ...................................................
          :                      SETUP                      :
          :.................................................:
          :  # basis functions                2844          :
          :  # atomic orbitals                2817          :
          :  # shells                         1531          :
          :  # electrons                      3157          :
          :  max. iterations                   250          :
          :  Hamiltonian                  GFN2-xTB          :
          :  restarted?                       true          :
          :  GBSA solvation                   true          :
          :  PC potential                    false          :
          :  electronic temp.          300.0000000     K    :
          :  accuracy                    1.0000000          :
          :  -> integral cutoff          0.2500000E+02      :
          :  -> integral neglect         0.1000000E-07      :
          :  -> SCF convergence          0.1000000E-05 Eh   :
          :  -> wf. convergence          0.1000000E-03 e    :
          :  Broyden damping             0.4000000          :
          ...................................................

 iter      E             dE          RMSdq      gap      omega  full diag
   1  -1867.7053387 -0.186771E+04  0.162E+00    0.01       0.0  T
   2  -1865.6813531  0.202399E+01  0.194E+00    0.01       1.0  T
   3  -1865.0596034  0.621750E+00  0.183E+00    0.03       1.0  T
   4  -1867.2067359 -0.214713E+01  0.155E+00    0.00       1.0  T
   5  -1867.8108511 -0.604115E+00  0.151E+00    0.03       1.0  T
   6  -1869.5705301 -0.175968E+01  0.110E+00    0.02       1.0  T
   7  -1868.4198380  0.115069E+01  0.119E+00    0.02       1.0  T
   8  -1869.2737042 -0.853866E+00  0.112E+00    0.00       1.0  T
   9  -1869.3934699 -0.119766E+00  0.104E+00    0.00       1.0  T
  10  -1869.8827058 -0.489236E+00  0.933E-01    0.00       1.0  T
  11  -1869.8455677  0.371381E-01  0.932E-01    0.00       1.0  T
  12  -1870.3865920 -0.541024E+00  0.773E-01    0.00       1.0  T
  13  -1870.6340707 -0.247479E+00  0.685E-01    0.00       1.0  T
  14  -1870.2698478  0.364223E+00  0.751E-01    0.00       1.0  T
  15  -1870.3830930 -0.113245E+00  0.747E-01    0.00       1.0  T
  16  -1870.7057317 -0.322639E+00  0.612E-01    0.00       1.0  T
  17  -1870.9716574 -0.265926E+00  0.475E-01    0.00       1.0  T
  18  -1870.9649532  0.670422E-02  0.476E-01    0.01       1.0  T
  19  -1870.9298278  0.351255E-01  0.453E-01    0.00       1.0  T
  20  -1870.9349117 -0.508392E-02  0.463E-01    0.00       1.0  T
  21  -1871.0442169 -0.109305E+00  0.416E-01    0.00       1.0  T
  22  -1871.0784928 -0.342759E-01  0.366E-01    0.00       1.0  T
  23  -1871.1564432 -0.779504E-01  0.298E-01    0.00       1.0  T
  24  -1871.1907484 -0.343053E-01  0.301E-01    0.00       1.0  T
  25  -1871.2101823 -0.194339E-01  0.265E-01    0.00       1.0  T
  26  -1871.0817188  0.128464E+00  0.357E-01    0.00       1.0  T
  27  -1871.1942413 -0.112522E+00  0.293E-01    0.00       1.0  T
  28  -1871.2645185 -0.702772E-01  0.219E-01    0.00       1.0  T
  29  -1871.2645862 -0.677182E-04  0.205E-01    0.00       1.0  T
  30  -1871.2766942 -0.121080E-01  0.187E-01    0.00       1.0  T
  31  -1871.2749631  0.173109E-02  0.207E-01    0.00       1.0  T
  32  -1871.2849385 -0.997543E-02  0.196E-01    0.00       1.0  T
  33  -1871.3130163 -0.280777E-01  0.125E-01    0.00       1.0  T
  34  -1871.3191205 -0.610428E-02  0.109E-01    0.00       1.0  T
  35  -1871.3216672 -0.254665E-02  0.987E-02    0.00       1.0  T
  36  -1871.3184094  0.325782E-02  0.111E-01    0.00       1.0  T
  37  -1871.3268133 -0.840390E-02  0.814E-02    0.00       1.0  T
  38  -1871.3247796  0.203371E-02  0.894E-02    0.00       1.0  T
  39  -1871.3307472 -0.596762E-02  0.669E-02    0.00       1.0  T
  40  -1871.3331432 -0.239597E-02  0.596E-02    0.00       1.0  T
  41  -1871.3332302 -0.870241E-04  0.605E-02    0.00       1.0  T
  42  -1871.3358294 -0.259920E-02  0.483E-02    0.00       1.0  T
  43  -1871.3360857 -0.256345E-03  0.479E-02    0.00       1.0  T
  44  -1871.3370447 -0.958929E-03  0.423E-02    0.00       1.0  T
  45  -1871.3375405 -0.495852E-03  0.352E-02    0.00       1.0  T
  46  -1871.3380826 -0.542037E-03  0.321E-02    0.00       1.0  T
  47  -1871.3381181 -0.355470E-04  0.309E-02    0.00       1.0  T
  48  -1871.3381613 -0.431823E-04  0.303E-02    0.00       1.0  T
  49  -1871.3388159 -0.654629E-03  0.214E-02    0.00       1.0  T
  50  -1871.3389281 -0.112164E-03  0.202E-02    0.00       1.0  T
  51  -1871.3383922  0.535872E-03  0.276E-02    0.00       1.0  T
  52  -1871.3389789 -0.586713E-03  0.205E-02    0.00       1.0  T
  53  -1871.3391482 -0.169277E-03  0.174E-02    0.00       1.0  T
  54  -1871.3392826 -0.134379E-03  0.143E-02    0.00       1.0  T
  55  -1871.3393699 -0.873311E-04  0.115E-02    0.00       1.0  T
  56  -1871.3393198  0.500725E-04  0.126E-02    0.00       1.0  T
  57  -1871.3394043 -0.844293E-04  0.104E-02    0.00       1.0  T
  58  -1871.3394847 -0.804306E-04  0.781E-03    0.00       1.0  T
  59  -1871.3394119  0.727840E-04  0.106E-02    0.00       1.0  T
  60  -1871.3394480 -0.360546E-04  0.969E-03    0.00       1.0  T
  61  -1871.3395066 -0.586466E-04  0.670E-03    0.00       1.0  T
  62  -1871.3395197 -0.130613E-04  0.595E-03    0.00       1.0  T
  63  -1871.3395291 -0.939943E-05  0.577E-03    0.00       1.0  T
  64  -1871.3395418 -0.127560E-04  0.534E-03    0.00       1.0  T
  65  -1871.3395563 -0.144818E-04  0.416E-03    0.00       1.0  T
  66  -1871.3395441  0.121680E-04  0.488E-03    0.00       1.0  T
  67  -1871.3395535 -0.936395E-05  0.429E-03    0.00       1.0  T
  68  -1871.3395638 -0.102708E-04  0.371E-03    0.00       1.0  T
  69  -1871.3395695 -0.570823E-05  0.337E-03    0.00       1.0  T
  70  -1871.3395755 -0.602507E-05  0.275E-03    0.00       1.2  T
  71  -1871.3395806 -0.505109E-05  0.227E-03    0.00       1.5  T
  72  -1871.3395838 -0.322064E-05  0.186E-03    0.00       1.8  T
  73  -1871.3395853 -0.155034E-05  0.162E-03    0.00       2.0  T
  74  -1871.3395862 -0.919010E-06  0.141E-03    0.00       2.3  T
  75  -1871.3395860  0.264971E-06  0.137E-03    0.00       2.4  T
  76  -1871.3395858  0.176507E-06  0.154E-03    0.00       2.1  T
  77  -1871.3395878 -0.203697E-05  0.102E-03    0.00       3.2  T
  78  -1871.3395877  0.161648E-06  0.105E-03    0.00       3.1  T
  79  -1871.3395883 -0.581666E-06  0.880E-04    0.00       3.8  T
  80  -1871.3395882  0.820032E-07  0.942E-04    0.00       3.5  T

   *** convergence criteria satisfied after 80 iterations ***

         #    Occupation            Energy/Eh            Energy/eV
      -------------------------------------------------------------
         1        2.0000           -0.7695048             -20.9393
       ...           ...                  ...                  ...
      1573        1.5218           -0.4328291             -11.7779
      1574        1.5161           -0.4328144             -11.7775
      1575        1.4785           -0.4327192             -11.7749
      1576        1.4547           -0.4326615             -11.7733
      1577        1.4335           -0.4326112             -11.7720
      1578        1.4088           -0.4325541             -11.7704
      1579        1.3976           -0.4325287             -11.7697 (HOMO)
      1580        1.3866           -0.4325039             -11.7690 (LUMO)
      1581        1.3775           -0.4324839             -11.7685
      1582        1.3656           -0.4324575             -11.7678
      1583        1.3075           -0.4323329             -11.7644
      1584        1.2958           -0.4323084             -11.7637
       ...           ...                  ...                  ...
      2817                          1.3183478              35.8741
      -------------------------------------------------------------
                  HL-Gap            0.0000248 Eh            0.0007 eV
             Fermi-level           -0.4317287 Eh          -11.7479 eV

 SCC (total)                   0 d,  0 h,  1 min, 37.544 sec
 SCC setup                      ...        0 min,  0.117 sec (  0.120%)
 Dispersion                     ...        0 min,  0.400 sec (  0.410%)
 classical contributions        ...        0 min,  0.006 sec (  0.006%)
 integral evaluation            ...        0 min,  0.916 sec (  0.939%)
 iterations                     ...        1 min, 32.356 sec ( 94.682%)
 molecular gradient             ...        0 min,  3.565 sec (  3.655%)
 printout                       ...        0 min,  0.183 sec (  0.188%)

         :::::::::::::::::::::::::::::::::::::::::::::::::::::
         ::                     SUMMARY                     ::
         :::::::::::::::::::::::::::::::::::::::::::::::::::::
         :: total energy           -1853.699847823861 Eh    ::
         :: total w/o Gsasa/hb     -1853.521665790384 Eh    ::
         :: gradient norm              0.574892509757 Eh/a0 ::
         :: HOMO-LUMO gap              0.000673490018 eV    ::
         ::.................................................::
         :: SCC energy             -1871.339588179622 Eh    ::
         :: -> isotropic ES            8.993675850995 Eh    ::
         :: -> anisotropic ES         -1.275230195430 Eh    ::
         :: -> anisotropic XC          0.353267480987 Eh    ::
         :: -> dispersion             -1.601702209597 Eh    ::
         :: -> Gsolv                  -3.517418548165 Eh    ::
         ::    -> Gelec               -3.339236514688 Eh    ::
         ::    -> Gsasa               -0.010836204820 Eh    ::
         ::    -> Ghb                 -0.169203271783 Eh    ::
         ::    -> Gshift               0.001857443127 Eh    ::
         :: repulsion energy          17.498820254880 Eh    ::
         :: add. restraining           0.000000000000 Eh    ::
         :: total charge               0.000000000053 e     ::
         :::::::::::::::::::::::::::::::::::::::::::::::::::::

           -------------------------------------------------
          |                Property Printout                |
           -------------------------------------------------

    * Orbital Energies and Occupations

         #    Occupation            Energy/Eh            Energy/eV
      -------------------------------------------------------------
         1        2.0000           -0.7695048             -20.9393
       ...           ...                  ...                  ...
      1567        1.6514           -0.4332072             -11.7882
      1568        1.6076           -0.4330692             -11.7844
      1569        1.5860           -0.4330054             -11.7827
      1570        1.5791           -0.4329857             -11.7821
      1571        1.5599           -0.4329317             -11.7807
      1572        1.5483           -0.4328998             -11.7798
      1573        1.5218           -0.4328291             -11.7779
      1574        1.5161           -0.4328144             -11.7775
      1575        1.4785           -0.4327192             -11.7749
      1576        1.4547           -0.4326615             -11.7733
      1577        1.4335           -0.4326112             -11.7720
      1578        1.4088           -0.4325541             -11.7704
      1579        1.3976           -0.4325287             -11.7697 (HOMO)
      1580        1.3866           -0.4325039             -11.7690 (LUMO)
      1581        1.3775           -0.4324839             -11.7685
      1582        1.3656           -0.4324575             -11.7678
      1583        1.3075           -0.4323329             -11.7644
      1584        1.2958           -0.4323084             -11.7637
      1585        1.2368           -0.4321877             -11.7604
      1586        1.2138           -0.4321415             -11.7592
      1587        1.0599           -0.4318427             -11.7510
      1588        0.9799           -0.4316904             -11.7469
      1589        0.9331           -0.4316013             -11.7445
      1590        0.7925           -0.4313283             -11.7370
       ...           ...                  ...                  ...
      2817                          1.3183478              35.8741
      -------------------------------------------------------------
                  HL-Gap            0.0000248 Eh            0.0007 eV
             Fermi-level           -0.4317287 Eh          -11.7479 eV

 * generalized Born model for continuum solvation

     #   Z     Born rad/Å   SASA/Å²    H-bond
     1   8 O        2.233    16.265    -0.002
     2   6 C        2.758     0.735    -0.000
     3   6 C        3.160     0.309    -0.000
     4   8 O        2.817    10.408    -0.001
     5   6 C        3.236     0.351    -0.000
     6   8 O        2.624     4.716    -0.001
     7   6 C        3.245     0.615    -0.000
     8   6 C        3.503     0.353    -0.000
     9   7 N        3.647     0.432    -0.000
    10   6 C        3.088     6.402    -0.000
    11   7 N        2.748    14.980    -0.005
    12   6 C        3.896     3.141    -0.000
    13   6 C        3.418     4.315    -0.000
    14   8 O        2.539    10.651    -0.001
    15   7 N        3.377     2.047    -0.001
    16   6 C        3.743     4.291    -0.000
    17   7 N        2.665     3.876    -0.001
    18   7 N        3.163     5.421    -0.002
    19   6 C        4.133     3.299    -0.000
    20   1 H        2.087    16.459    -0.022
    21   1 H        2.174     8.212    -0.011
    22   1 H        2.139    16.514    -0.022
    23   1 H        2.204    10.421    -0.014
    24   1 H        2.328     8.551    -0.011
    25   1 H        2.351     2.618    -0.003
    26   1 H        2.452     4.274    -0.006
    27   1 H        2.210    11.724    -0.016
    28   1 H        3.109     0.550    -0.001
    29   1 H        2.460     4.877    -0.007
    30   1 H        2.219    17.027    -0.023
    31   1 H        1.909    23.107    -0.031
    32  15 P        3.169    10.045    -0.001
    33   8 O        2.172    25.000    -0.003
    34   8 O        2.200    23.057    -0.003
    35   8 O        2.644     1.861    -0.000
    36   6 C        2.854     0.556    -0.000
    37   6 C        3.309     0.180    -0.000
    38   8 O        3.125     1.230    -0.000
    39   6 C        3.308     0.050    -0.000
    40   8 O        2.637     4.476    -0.001
    41   6 C        3.323     0.229    -0.000
    42   6 C        3.745     0.006    -0.000
    43   7 N        3.868     0.000     0.000
    44   6 C        3.899     0.000     0.000
    45   8 O        2.857     3.534    -0.000
    46   7 N        3.856     0.000     0.000
    47   6 C        4.004     0.059    -0.000
    48   7 N        2.766     0.578    -0.000
    49   6 C        3.390     3.502    -0.000
    50   6 C        3.443     2.087    -0.000
    51   1 H        2.164    11.826    -0.016
    52   1 H        2.126    14.313    -0.019
    53   1 H        2.235    14.259    -0.019
    54   1 H        2.261     8.575    -0.011
    55   1 H        2.345     9.882    -0.013
    56   1 H        2.436     0.528    -0.001
    57   1 H        2.501     4.575    -0.006
    58   1 H        2.725     0.873    -0.001
    59   1 H        2.255    16.841    -0.023
    60   1 H        2.193    13.421    -0.018
    61   1 H        2.363     5.356    -0.007
    62  15 P        3.179    10.374    -0.001
    63   8 O        2.174    25.141    -0.003
    64   8 O        2.204    23.766    -0.003
    65   8 O        2.657     1.859    -0.000
    66   6 C        2.861     0.564    -0.000
    67   6 C        3.307     0.184    -0.000
    68   8 O        3.069     2.897    -0.000
    69   6 C        3.323     0.101    -0.000
    70   8 O        2.655     4.404    -0.001
    71   6 C        3.356     0.215    -0.000
    72   6 C        3.705     0.425    -0.000
    73   7 N        4.085     0.002    -0.000
    74   6 C        3.479     0.362    -0.000
    75   7 N        3.172     6.080    -0.002
    76   6 C        5.086     0.000    -0.000
    77   6 C        4.598     0.000     0.000
    78   7 N        3.004     0.056    -0.000
    79   7 N        3.826     0.012    -0.000
    80   6 C        3.525     0.257    -0.000
    81   7 N        3.204     3.624    -0.001
    82   6 C        4.793     0.042    -0.000
    83   1 H        2.169    12.081    -0.016
    84   1 H        2.128    14.597    -0.020
    85   1 H        2.229    14.388    -0.019
    86   1 H        2.257     9.126    -0.012
    87   1 H        2.379     6.486    -0.009
    88   1 H        2.449     0.490    -0.001
    89   1 H        2.493     6.269    -0.008
    90   1 H        2.379     6.714    -0.009
    91   1 H        2.962     0.345    -0.000
    92   1 H        2.491     9.056    -0.012
    93   1 H        2.411     9.857    -0.013
    94  15 P        3.188    10.427    -0.001
    95   8 O        2.174    25.367    -0.003
    96   8 O        2.210    23.245    -0.003
    97   8 O        2.673     1.551    -0.000
    98   6 C        2.877     0.559    -0.000
    99   6 C        3.324     0.182    -0.000
   100   8 O        3.125     2.060    -0.000
   101   6 C        3.330     0.070    -0.000
   102   8 O        2.643     4.669    -0.001
   103   6 C        3.372     0.405    -0.000
   104   6 C        3.761     0.123    -0.000
   105   7 N        3.902     0.000    -0.000
   106   6 C        3.798     0.004    -0.000
   107   8 O        2.620     7.489    -0.001
   108   7 N        3.593     0.000    -0.000
   109   6 C        3.900     0.000     0.000
   110   8 O        2.765     6.489    -0.001
   111   6 C        4.105     0.000    -0.000
   112   6 C        2.853     2.281    -0.000
   113   6 C        3.693     0.019    -0.000
   114   1 H        2.183    10.905    -0.015
   115   1 H        2.134    14.164    -0.019
   116   1 H        2.227    14.876    -0.020
   117   1 H        2.268     8.109    -0.011
   118   1 H        2.393     7.393    -0.010
   119   1 H        2.479     0.432    -0.001
   120   1 H        2.485     6.796    -0.009
   121   1 H        3.338     0.022    -0.000
   122   1 H        2.278     8.715    -0.012
   123   1 H        2.261     9.863    -0.013
   124   1 H        2.218    11.744    -0.016
   125   1 H        2.480     3.088    -0.004
   126  15 P        3.173    10.647    -0.001
   127   8 O        2.174    25.119    -0.003
   128   8 O        2.195    24.241    -0.003
   129   8 O        2.658     2.184    -0.000
   130   6 C        2.866     0.545    -0.000
   131   6 C        3.329     0.186    -0.000
   132   8 O        3.134     1.330    -0.000
   133   6 C        3.321     0.040    -0.000
   134   8 O        2.632     4.750    -0.001
   135   6 C        3.343     0.313    -0.000
   136   6 C        3.742     0.117    -0.000
   137   7 N        3.860     0.000    -0.000
   138   6 C        3.848     0.005    -0.000
   139   8 O        2.864     2.061    -0.000
   140   7 N        3.854     0.000     0.000
   141   6 C        4.109     0.140    -0.000
   142   7 N        2.828     0.309    -0.000
   143   6 C        3.474     2.293    -0.000
   144   6 C        3.498     1.135    -0.000
   145   1 H        2.178    11.637    -0.016
   146   1 H        2.125    14.840    -0.020
   147   1 H        2.244    14.279    -0.019
   148   1 H        2.275     7.721    -0.010
   149   1 H        2.367     8.247    -0.011
   150   1 H        2.458     0.317    -0.000
   151   1 H        2.494     7.112    -0.010
   152   1 H        2.685     1.204    -0.002
   153   1 H        2.366     9.702    -0.013
   154   1 H        2.223    12.862    -0.017
   155   1 H        2.383     6.347    -0.008
   156  15 P        3.170    10.668    -0.001
   157   8 O        2.174    24.978    -0.003
   158   8 O        2.193    24.234    -0.003
   159   8 O        2.655     1.729    -0.000
   160   6 C        2.860     0.532    -0.000
   161   6 C        3.311     0.177    -0.000
   162   8 O        3.061     2.943    -0.000
   163   6 C        3.302     0.152    -0.000
   164   8 O        2.651     4.859    -0.001
   165   6 C        3.282     0.584    -0.000
   166   6 C        3.685     0.122    -0.000
   167   7 N        3.963     0.004    -0.000
   168   6 C        3.361     3.495    -0.000
   169   7 N        3.026    10.323    -0.003
   170   6 C        4.577     0.212    -0.000
   171   6 C        3.972     0.111    -0.000
   172   8 O        2.748     7.265    -0.001
   173   7 N        4.042     0.000     0.000
   174   6 C        4.525     0.000    -0.000
   175   7 N        2.967     0.330    -0.000
   176   7 N        3.497     1.811    -0.001
   177   6 C        4.715     0.002    -0.000
   178   1 H        2.172    12.502    -0.017
   179   1 H        2.123    14.930    -0.020
   180   1 H        2.235    14.184    -0.019
   181   1 H        2.241     9.435    -0.013
   182   1 H        2.331     9.935    -0.013
   183   1 H        2.336     4.609    -0.006
   184   1 H        2.538     4.280    -0.006
   185   1 H        2.339     7.791    -0.010
   186   1 H        3.753     0.000     0.000
   187   1 H        2.850     0.750    -0.001
   188   1 H        2.370    14.273    -0.019
   189  15 P        3.175    10.732    -0.001
   190   8 O        2.171    25.357    -0.003
   191   8 O        2.197    23.292    -0.003
   192   8 O        2.640     2.638    -0.000
   193   6 C        2.883     0.535    -0.000
   194   6 C        3.385     0.169    -0.000
   195   8 O        3.127     0.694    -0.000
   196   6 C        3.332     0.065    -0.000
   197   8 O        2.673     3.990    -0.001
   198   6 C        3.312     0.094    -0.000
   199   6 C        3.753     0.001    -0.000
   200   7 N        3.996     0.134    -0.000
   201   6 C        3.324     4.275    -0.000
   202   7 N        2.988    10.780    -0.003
   203   6 C        4.480     3.368    -0.000
   204   6 C        3.836     3.896    -0.000
   205   7 N        2.652     3.889    -0.001
   206   7 N        3.123     9.242    -0.003
   207   6 C        3.222     4.351    -0.000
   208   7 N        3.071     3.616    -0.001
   209   6 C        4.500     1.564    -0.000
   210   1 H        2.216     9.377    -0.013
   211   1 H        2.147    13.452    -0.018
   212   1 H        2.324    11.201    -0.015
   213   1 H        2.253    10.082    -0.013
   214   1 H        2.302    11.669    -0.016
   215   1 H        2.450     0.014    -0.000
   216   1 H        2.574     3.696    -0.005
   217   1 H        2.289    11.542    -0.015
   218   1 H        2.312     7.059    -0.009
   219   1 H        2.270    15.297    -0.020
   220   1 H        2.297    15.956    -0.021
   221  15 P        3.198    10.637    -0.001
   222   8 O        2.174    26.066    -0.004
   223   8 O        2.211    23.019    -0.003
   224   8 O        2.714     0.517    -0.000
   225   6 C        2.932     0.527    -0.000
   226   6 C        3.332     0.268    -0.000
   227   8 O        3.041     2.680    -0.000
   228   6 C        3.358     0.139    -0.000
   229   8 O        2.659     4.717    -0.001
   230   6 C        3.380     0.475    -0.000
   231   6 C        3.639     0.649    -0.000
   232   7 N        3.817     0.513    -0.000
   233   6 C        3.236     2.334    -0.000
   234   7 N        2.883    12.193    -0.004
   235   6 C        4.246     3.213    -0.000
   236   6 C        3.741     3.209    -0.000
   237   7 N        2.594     2.426    -0.001
   238   7 N        3.149     2.841    -0.001
   239   6 C        3.273     4.680    -0.000
   240   7 N        3.035     6.686    -0.002
   241   6 C        4.270     3.233    -0.000
   242   1 H        2.251     6.673    -0.009
   243   1 H        2.162    13.543    -0.018
   244   1 H        2.215    16.092    -0.022
   245   1 H        2.278     7.772    -0.010
   246   1 H        2.392     5.388    -0.007
   247   1 H        2.493     0.135    -0.000
   248   1 H        2.442     9.835    -0.013
   249   1 H        2.310     6.044    -0.008
   250   1 H        2.286    10.766    -0.014
   251   1 H        2.207    16.718    -0.022
   252   1 H        2.481     2.272    -0.003
   253  15 P        3.183    10.565    -0.001
   254   8 O        2.187    24.364    -0.003
   255   8 O        2.192    24.595    -0.003
   256   8 O        2.703     0.802    -0.000
   257   6 C        2.914     0.545    -0.000
   258   6 C        3.463     0.174    -0.000
   259   8 O        3.227     0.420    -0.000
   260   6 C        3.395     0.080    -0.000
   261   8 O        2.760     0.623    -0.000
   262   6 C        3.214     0.706    -0.000
   263   6 C        3.743     0.126    -0.000
   264   7 N        3.519     0.958    -0.000
   265   6 C        3.378     4.540    -0.000
   266   8 O        2.550     7.495    -0.001
   267   7 N        2.919     2.224    -0.001
   268   6 C        3.100     4.453    -0.000
   269   8 O        2.309    22.777    -0.003
   270   6 C        3.071     4.657    -0.000
   271   6 C        3.242     3.937    -0.000
   272   1 H        2.200    11.802    -0.016
   273   1 H        2.152    14.639    -0.020
   274   1 H        2.380     5.549    -0.007
   275   1 H        2.284     7.939    -0.011
   276   1 H        2.311     9.120    -0.012
   277   1 H        2.218    13.082    -0.017
   278   1 H        2.709     0.979    -0.001
   279   1 H        2.296    13.683    -0.018
   280   1 H        2.118    15.991    -0.021
   281   1 H        2.368     5.225    -0.007
   282  15 P        3.193     7.400    -0.001
   283   8 O        2.198    23.839    -0.003
   284   8 O        2.203    22.043    -0.003
   285   8 O        2.532     6.506    -0.001
   286   6 C        2.783     1.384    -0.000
   287   6 C        3.307     0.173    -0.000
   288   8 O        2.930     7.800    -0.001
   289   6 C        3.365     0.071    -0.000
   290   8 O        2.768     1.614    -0.000
   291   6 C        3.432     0.622    -0.000
   292   6 C        3.711     0.068    -0.000
   293   7 N        3.849     0.369    -0.000
   294   6 C        3.476     0.227    -0.000
   295   7 N        3.068     5.041    -0.002
   296   6 C        4.226     3.206    -0.000
   297   6 C        3.537     3.820    -0.000
   298   7 N        2.543     4.334    -0.001
   299   7 N        2.815    11.396    -0.003
   300   6 C        2.920     8.908    -0.000
   301   7 N        2.823    11.312    -0.003
   302   6 C        4.099     3.342    -0.000
   303   1 H        2.115    13.600    -0.018
   304   1 H        2.092    18.396    -0.025
   305   1 H        2.278    11.119    -0.015
   306   1 H        2.261     8.893    -0.012
   307   1 H        2.496     1.678    -0.002
   308   1 H        2.516     0.693    -0.001
   309   1 H        2.600     3.559    -0.005
   310   1 H        2.565     0.002    -0.000
   311   1 H        2.156    21.772    -0.029
   312   1 H        2.237    14.805    -0.020
   313   1 H        2.120    22.488    -0.030
   314  15 P        3.235     8.903    -0.001
   315   8 O        2.173    26.772    -0.004
   316   8 O        2.323    10.797    -0.001
   317   8 O        2.517     9.024    -0.001
   318   6 C        2.815     1.418    -0.000
   319   6 C        3.376     0.200    -0.000
   320   8 O        3.132     0.646    -0.000
   321   6 C        3.364     0.083    -0.000
   322   8 O        2.660     3.665    -0.001
   323   6 C        3.443     0.001    -0.000
   324   6 C        3.737     0.086    -0.000
   325   7 N        4.036     0.000    -0.000
   326   6 C        3.377     1.959    -0.000
   327   7 N        3.062     5.905    -0.002
   328   6 C        4.795     0.000    -0.000
   329   6 C        4.188     0.000    -0.000
   330   7 N        2.841     0.291    -0.000
   331   7 N        3.277     3.709    -0.001
   332   6 C        3.296     0.614    -0.000
   333   7 N        3.098     5.330    -0.002
   334   6 C        4.649     0.003    -0.000
   335   1 H        2.148    12.697    -0.017
   336   1 H        2.104    16.953    -0.023
   337   1 H        2.313    10.723    -0.014
   338   1 H        2.287     7.458    -0.010
   339   1 H        2.432     5.020    -0.007
   340   1 H        2.587     0.004    -0.000
   341   1 H        2.523     7.914    -0.011
   342   1 H        2.328     8.033    -0.011
   343   1 H        2.465     8.766    -0.012
   344   1 H        2.568     0.708    -0.001
   345   1 H        2.279    17.149    -0.023
   346  15 P        3.198    10.571    -0.001
   347   8 O        2.170    25.880    -0.004
   348   8 O        2.219    20.723    -0.003
   349   8 O        2.718     0.940    -0.000
   350   6 C        2.896     0.567    -0.000
   351   6 C        3.298     0.294    -0.000
   352   8 O        3.036     4.941    -0.001
   353   6 C        3.306     0.344    -0.000
   354   8 O        2.684     3.164    -0.000
   355   6 C        3.324     0.476    -0.000
   356   6 C        3.694     0.344    -0.000
   357   7 N        3.980     0.011    -0.000
   358   6 C        3.345     2.770    -0.000
   359   7 N        2.930    11.617    -0.003
   360   6 C        4.382     0.062    -0.000
   361   6 C        3.780     0.113    -0.000
   362   8 O        2.666     8.221    -0.001
   363   7 N        3.766     0.000    -0.000
   364   6 C        4.178     0.011    -0.000
   365   7 N        2.784     2.169    -0.001
   366   7 N        3.412     2.638    -0.001
   367   6 C        4.648     0.046    -0.000
   368   1 H        2.206     9.495    -0.013
   369   1 H        2.134    13.930    -0.019
   370   1 H        2.197    16.019    -0.021
   371   1 H        2.222    11.036    -0.015
   372   1 H        2.364     8.712    -0.012
   373   1 H        2.390     2.077    -0.003
   374   1 H        2.515     4.329    -0.006
   375   1 H        2.365     5.247    -0.007
   376   1 H        3.405     0.001    -0.000
   377   1 H        2.535     5.822    -0.008
   378   1 H        2.297    14.452    -0.019
   379  15 P        3.204     9.384    -0.001
   380   8 O        2.178    25.311    -0.003
   381   8 O        2.229    21.293    -0.003
   382   8 O        2.696     0.600    -0.000
   383   6 C        2.885     0.566    -0.000
   384   6 C        3.291     0.244    -0.000
   385   8 O        3.056     3.846    -0.001
   386   6 C        3.334     0.200    -0.000
   387   8 O        2.642     4.567    -0.001
   388   6 C        3.384     0.236    -0.000
   389   6 C        3.723     0.031    -0.000
   390   7 N        3.890     0.000     0.000
   391   6 C        3.828     0.000    -0.000
   392   8 O        2.782     5.308    -0.001
   393   7 N        3.841     0.000     0.000
   394   6 C        4.129     0.049    -0.000
   395   7 N        2.842     0.538    -0.000
   396   6 C        3.529     1.104    -0.000
   397   6 C        3.567     0.086    -0.000
   398   1 H        2.173    11.871    -0.016
   399   1 H        2.141    13.591    -0.018
   400   1 H        2.195    15.968    -0.021
   401   1 H        2.283     7.952    -0.011
   402   1 H        2.440     4.147    -0.006
   403   1 H        2.459     0.348    -0.000
   404   1 H        2.455     6.789    -0.009
   405   1 H        2.904     0.350    -0.000
   406   1 H        2.313    15.211    -0.020
   407   1 H        2.265    10.230    -0.014
   408   1 H        2.458     1.917    -0.003
   409  15 P        3.179    10.143    -0.001
   410   8 O        2.175    24.863    -0.003
   411   8 O        2.205    23.547    -0.003
   412   8 O        2.656     1.581    -0.000
   413   6 C        2.856     0.601    -0.000
   414   6 C        3.310     0.177    -0.000
   415   8 O        3.100     2.410    -0.000
   416   6 C        3.340     0.008    -0.000
   417   8 O        2.633     4.732    -0.001
   418   6 C        3.411     0.007    -0.000
   419   6 C        3.702     0.204    -0.000
   420   7 N        3.822     0.000    -0.000
   421   6 C        3.722     0.028    -0.000
   422   8 O        2.619     8.732    -0.001
   423   7 N        3.545     0.001    -0.000
   424   6 C        3.839     0.000    -0.000
   425   8 O        2.769     4.646    -0.001
   426   6 C        3.955     0.137    -0.000
   427   6 C        2.810     2.767    -0.000
   428   6 C        3.602     0.601    -0.000
   429   1 H        2.159    12.783    -0.017
   430   1 H        2.124    14.678    -0.020
   431   1 H        2.229    14.609    -0.020
   432   1 H        2.297     7.708    -0.010
   433   1 H        2.473     4.517    -0.006
   434   1 H        2.504     0.288    -0.000
   435   1 H        2.440     9.949    -0.013
   436   1 H        3.385     0.000    -0.000
   437   1 H        2.176    14.854    -0.020
   438   1 H        2.193    12.815    -0.017
   439   1 H        2.266     7.485    -0.010
   440   1 H        2.439     4.692    -0.006
   441  15 P        3.189    10.279    -0.001
   442   8 O        2.176    25.008    -0.003
   443   8 O        2.209    22.824    -0.003
   444   8 O        2.702     0.571    -0.000
   445   6 C        2.881     0.553    -0.000
   446   6 C        3.286     0.250    -0.000
   447   8 O        3.014     7.197    -0.001
   448   6 C        3.320     0.355    -0.000
   449   8 O        2.667     4.363    -0.001
   450   6 C        3.355     0.520    -0.000
   451   6 C        3.701     0.292    -0.000
   452   7 N        4.021     0.154    -0.000
   453   6 C        3.457     0.666    -0.000
   454   7 N        3.149     4.433    -0.001
   455   6 C        4.890     0.013    -0.000
   456   6 C        4.402     0.006    -0.000
   457   7 N        2.976     0.058    -0.000
   458   7 N        3.619     0.076    -0.000
   459   6 C        3.348     0.795    -0.000
   460   7 N        3.081     6.661    -0.002
   461   6 C        4.580     0.955    -0.000
   462   1 H        2.173    12.666    -0.017
   463   1 H        2.135    13.603    -0.018
   464   1 H        2.191    16.197    -0.022
   465   1 H        2.234    10.538    -0.014
   466   1 H        2.387     7.235    -0.010
   467   1 H        2.421     1.686    -0.002
   468   1 H        2.521     3.896    -0.005
   469   1 H        2.391     6.479    -0.009
   470   1 H        2.912     0.508    -0.001
   471   1 H        2.515     4.070    -0.005
   472   1 H        2.350    11.694    -0.016
   473  15 P        3.204    10.052    -0.001
   474   8 O        2.179    25.102    -0.003
   475   8 O        2.222    22.313    -0.003
   476   8 O        2.704     0.580    -0.000
   477   6 C        2.891     0.557    -0.000
   478   6 C        3.322     0.254    -0.000
   479   8 O        3.094     2.852    -0.000
   480   6 C        3.357     0.350    -0.000
   481   8 O        2.663     4.992    -0.001
   482   6 C        3.471     0.090    -0.000
   483   6 C        3.792     0.165    -0.000
   484   7 N        3.811     0.001    -0.000
   485   6 C        3.591     1.121    -0.000
   486   8 O        2.668     5.702    -0.001
   487   7 N        3.521     1.385    -0.000
   488   6 C        4.018     0.042    -0.000
   489   7 N        2.787     0.320    -0.000
   490   6 C        3.633     0.000    -0.000
   491   6 C        3.617     0.000    -0.000
   492   1 H        2.184    11.517    -0.015
   493   1 H        2.142    13.577    -0.018
   494   1 H        2.203    16.022    -0.021
   495   1 H        2.252     9.366    -0.013
   496   1 H        2.488     3.427    -0.005
   497   1 H        2.591     0.006    -0.000
   498   1 H        2.553     4.221    -0.006
   499   1 H        2.646     1.572    -0.002
   500   1 H        2.314    12.160    -0.016
   501   1 H        2.316     6.173    -0.008
   502   1 H        2.486     2.322    -0.003
   503  15 P        3.184    10.299    -0.001
   504   8 O        2.174    25.332    -0.003
   505   8 O        2.197    22.621    -0.003
   506   8 O        2.710     0.736    -0.000
   507   6 C        2.898     0.589    -0.000
   508   6 C        3.265     0.178    -0.000
   509   8 O        3.072     1.716    -0.000
   510   6 C        3.139     0.564    -0.000
   511   8 O        2.309    13.527    -0.002
   512   6 C        3.101     1.126    -0.000
   513   6 C        3.483     0.263    -0.000
   514   7 N        3.607     1.008    -0.000
   515   6 C        3.117     5.503    -0.000
   516   7 N        2.730    15.292    -0.005
   517   6 C        3.682     3.356    -0.000
   518   6 C        3.097     4.606    -0.000
   519   8 O        2.275    28.700    -0.004
   520   7 N        2.958     2.152    -0.001
   521   6 C        3.499     4.125    -0.000
   522   7 N        2.623     3.656    -0.001
   523   7 N        3.038     7.365    -0.002
   524   6 C        3.961     3.291    -0.000
   525   1 H        2.229     8.153    -0.011
   526   1 H        2.128    14.162    -0.019
   527   1 H        2.188    15.592    -0.021
   528   1 H        2.163    14.027    -0.019
   529   1 H        1.951    20.044    -0.027
   530   1 H        2.291     7.539    -0.010
   531   1 H        2.151    16.186    -0.022
   532   1 H        2.369    11.514    -0.015
   533   1 H        2.235    10.984    -0.015
   534   1 H        2.279    14.284    -0.019
   535   1 H        2.233    14.105    -0.019
   536   1 H        2.357     8.536    -0.011
   537   8 O        2.241    14.412    -0.002
   538   6 C        2.718     0.908    -0.000
   539   6 C        3.152     0.179    -0.000
   540   8 O        2.810     7.602    -0.001
   541   6 C        3.254     0.053    -0.000
   542   8 O        2.612     5.028    -0.001
   543   6 C        3.310     0.155    -0.000
   544   6 C        3.442     0.981    -0.000
   545   7 N        3.355     1.332    -0.000
   546   6 C        3.203     4.604    -0.000
   547   8 O        2.436    15.553    -0.002
   548   7 N        2.925     9.407    -0.003
   549   6 C        3.431     3.840    -0.000
   550   7 N        2.669     1.530    -0.000
   551   6 C        3.094     6.014    -0.000
   552   6 C        3.085     5.770    -0.000
   553   1 H        2.105    14.898    -0.020
   554   1 H        2.057    18.813    -0.025
   555   1 H        2.168    14.820    -0.020
   556   1 H        2.246     7.774    -0.010
   557   1 H        2.364     7.259    -0.010
   558   1 H        2.502     0.005    -0.000
   559   1 H        2.351     9.362    -0.013
   560   1 H        2.347    10.101    -0.013
   561   1 H        2.413     2.949    -0.004
   562   1 H        2.110    17.990    -0.024
   563   1 H        2.176    14.014    -0.019
   564   1 H        1.908    23.192    -0.031
   565  15 P        3.166    10.451    -0.001
   566   8 O        2.172    24.825    -0.003
   567   8 O        2.194    24.363    -0.003
   568   8 O        2.670     0.885    -0.000
   569   6 C        2.864     0.535    -0.000
   570   6 C        3.278     0.204    -0.000
   571   8 O        3.068     1.514    -0.000
   572   6 C        3.308     0.208    -0.000
   573   8 O        2.645     4.403    -0.001
   574   6 C        3.335     0.435    -0.000
   575   6 C        3.672     0.343    -0.000
   576   7 N        4.012     0.005    -0.000
   577   6 C        3.452     0.158    -0.000
   578   7 N        3.031     7.596    -0.002
   579   6 C        4.453     0.007    -0.000
   580   6 C        3.792     0.004    -0.000
   581   8 O        2.769     4.756    -0.001
   582   7 N        3.528     0.231    -0.000
   583   6 C        3.821     3.574    -0.000
   584   7 N        2.669     4.127    -0.001
   585   7 N        3.241     5.210    -0.002
   586   6 C        4.534     0.803    -0.000
   587   1 H        2.170    10.160    -0.014
   588   1 H        2.128    13.928    -0.019
   589   1 H        2.197    15.612    -0.021
   590   1 H        2.247     9.018    -0.012
   591   1 H        2.383     5.578    -0.007
   592   1 H        2.410     1.281    -0.002
   593   1 H        2.472     5.912    -0.008
   594   1 H        2.415     4.703    -0.006
   595   1 H        3.181     0.393    -0.001
   596   1 H        2.468     5.781    -0.008
   597   1 H        2.223    17.872    -0.024
   598  15 P        3.177    10.313    -0.001
   599   8 O        2.174    25.005    -0.003
   600   8 O        2.202    23.493    -0.003
   601   8 O        2.659     1.785    -0.000
   602   6 C        2.864     0.542    -0.000
   603   6 C        3.326     0.181    -0.000
   604   8 O        3.146     1.030    -0.000
   605   6 C        3.330     0.057    -0.000
   606   8 O        2.642     4.512    -0.001
   607   6 C        3.376     0.146    -0.000
   608   6 C        3.777     0.003    -0.000
   609   7 N        3.912     0.000     0.000
   610   6 C        3.837     0.000    -0.000
   611   8 O        2.647     7.171    -0.001
   612   7 N        3.585     0.000    -0.000
   613   6 C        3.835     0.000     0.000
   614   8 O        2.768     4.751    -0.001
   615   6 C        3.989     0.155    -0.000
   616   6 C        2.816     2.759    -0.000
   617   6 C        3.642     0.709    -0.000
   618   1 H        2.170    11.712    -0.016
   619   1 H        2.129    14.493    -0.019
   620   1 H        2.239    14.328    -0.019
   621   1 H        2.275     8.154    -0.011
   622   1 H        2.394     7.740    -0.010
   623   1 H        2.492     0.128    -0.000
   624   1 H        2.499     4.898    -0.007
   625   1 H        3.340     0.006    -0.000
   626   1 H        2.203    11.249    -0.015
   627   1 H        2.270     8.555    -0.011
   628   1 H        2.179    14.157    -0.019
   629   1 H        2.454     3.886    -0.005
   630  15 P        3.180    10.562    -0.001
   631   8 O        2.174    25.341    -0.003
   632   8 O        2.200    24.077    -0.003
   633   8 O        2.672     1.636    -0.000
   634   6 C        2.874     0.554    -0.000
   635   6 C        3.320     0.201    -0.000
   636   8 O        3.082     2.834    -0.000
   637   6 C        3.335     0.179    -0.000
   638   8 O        2.672     4.472    -0.001
   639   6 C        3.336     0.477    -0.000
   640   6 C        3.715     0.304    -0.000
   641   7 N        4.039     0.001    -0.000
   642   6 C        3.414     2.210    -0.000
   643   7 N        3.109     7.736    -0.002
   644   6 C        5.027     0.027    -0.000
   645   6 C        4.600     0.000    -0.000
   646   7 N        3.008     0.059    -0.000
   647   7 N        3.823     0.000    -0.000
   648   6 C        3.476     0.393    -0.000
   649   7 N        3.150     4.883    -0.001
   650   6 C        4.728     0.102    -0.000
   651   1 H        2.181    11.636    -0.016
   652   1 H        2.129    14.713    -0.020
   653   1 H        2.225    14.978    -0.020
   654   1 H        2.255     9.279    -0.012
   655   1 H        2.356     9.377    -0.013
   656   1 H        2.403     1.533    -0.002
   657   1 H        2.522     5.127    -0.007
   658   1 H        2.350     8.624    -0.012
   659   1 H        2.975     0.116    -0.000
   660   1 H        2.480     4.701    -0.006
   661   1 H        2.404    10.584    -0.014
   662  15 P        3.215    10.526    -0.001
   663   8 O        2.191    25.347    -0.003
   664   8 O        2.219    23.428    -0.003
   665   8 O        2.708     1.311    -0.000
   666   6 C        2.913     0.539    -0.000
   667   6 C        3.394     0.202    -0.000
   668   8 O        3.155     1.865    -0.000
   669   6 C        3.438     0.163    -0.000
   670   8 O        2.733     4.610    -0.001
   671   6 C        3.440     0.371    -0.000
   672   6 C        3.838     0.136    -0.000
   673   7 N        4.183     0.000    -0.000
   674   6 C        3.445     1.115    -0.000
   675   7 N        3.071     8.621    -0.003
   676   6 C        4.771     0.009    -0.000
   677   6 C        4.031     0.015    -0.000
   678   8 O        2.742     7.831    -0.001
   679   7 N        3.918     0.000     0.000
   680   6 C        4.230     0.007    -0.000
   681   7 N        2.843     1.391    -0.000
   682   7 N        3.452     2.394    -0.001
   683   6 C        4.953     0.001    -0.000
   684   1 H        2.203    10.948    -0.015
   685   1 H        2.157    14.282    -0.019
   686   1 H        2.253    14.900    -0.020
   687   1 H        2.304     9.323    -0.012
   688   1 H        2.399     8.759    -0.012
   689   1 H        2.469     0.458    -0.001
   690   1 H        2.591     4.607    -0.006
   691   1 H        2.351     8.855    -0.012
   692   1 H        3.577     0.000     0.000
   693   1 H        2.762     1.437    -0.002
   694   1 H        2.315    15.332    -0.020
   695  15 P        3.365     5.750    -0.001
   696   8 O        2.238    24.524    -0.003
   697   8 O        2.433     6.948    -0.001
   698   8 O        2.832     0.180    -0.000
   699   6 C        2.966     0.558    -0.000
   700   6 C        3.446     0.200    -0.000
   701   8 O        3.214     0.648    -0.000
   702   6 C        3.536     0.000    -0.000
   703   8 O        2.727     4.022    -0.001
   704   6 C        3.417     0.430    -0.000
   705   6 C        3.800     0.054    -0.000
   706   7 N        3.801     0.452    -0.000
   707   6 C        3.678     2.330    -0.000
   708   8 O        2.767     6.430    -0.001
   709   7 N        3.587     0.050    -0.000
   710   6 C        3.848     2.100    -0.000
   711   7 N        2.718     1.122    -0.000
   712   6 C        3.441     4.445    -0.000
   713   6 C        3.520     2.890    -0.000
   714   1 H        2.223    10.976    -0.015
   715   1 H        2.190    11.825    -0.016
   716   1 H        2.261    14.571    -0.019
   717   1 H        2.468     0.565    -0.001
   718   1 H        2.462     5.157    -0.007
   719   1 H        2.347     7.281    -0.010
   720   1 H        2.523     8.034    -0.011
   721   1 H        2.497     4.394    -0.006
   722   1 H        2.339     8.018    -0.011
   723   1 H        2.238    13.458    -0.018
   724   1 H        2.448     1.221    -0.002
   725  15 P        3.226    10.106    -0.001
   726   8 O        2.192    24.990    -0.003
   727   8 O        2.222    22.743    -0.003
   728   8 O        2.741     0.459    -0.000
   729   6 C        2.917     0.543    -0.000
   730   6 C        3.313     0.288    -0.000
   731   8 O        3.024     7.157    -0.001
   732   6 C        3.336     0.270    -0.000
   733   8 O        2.646     4.877    -0.001
   734   6 C        3.362     0.559    -0.000
   735   6 C        3.685     0.255    -0.000
   736   7 N        3.758     0.574    -0.000
   737   6 C        3.740     0.159    -0.000
   738   8 O        2.758     5.298    -0.001
   739   7 N        3.748     0.001    -0.000
   740   6 C        3.933     0.684    -0.000
   741   7 N        2.817     0.513    -0.000
   742   6 C        3.410     4.237    -0.000
   743   6 C        3.449     2.387    -0.000
   744   1 H        2.218     9.728    -0.013
   745   1 H        2.156    13.521    -0.018
   746   1 H        2.204    16.305    -0.022
   747   1 H        2.274     8.176    -0.011
   748   1 H        2.404     7.792    -0.010
   749   1 H        2.434     1.445    -0.002
   750   1 H        2.445     6.976    -0.009
   751   1 H        2.868     0.292    -0.000
   752   1 H        2.469     5.804    -0.008
   753   1 H        2.304     4.625    -0.006
   754   1 H        2.465     1.701    -0.002
   755  15 P        3.178    10.608    -0.001
   756   8 O        2.181    24.670    -0.003
   757   8 O        2.195    24.228    -0.003
   758   8 O        2.650     2.377    -0.000
   759   6 C        2.862     0.539    -0.000
   760   6 C        3.337     0.176    -0.000
   761   8 O        3.111     1.779    -0.000
   762   6 C        3.332     0.074    -0.000
   763   8 O        2.644     4.516    -0.001
   764   6 C        3.383     0.014    -0.000
   765   6 C        3.742     0.194    -0.000
   766   7 N        4.120     0.002    -0.000
   767   6 C        3.443     2.669    -0.000
   768   7 N        3.116     7.917    -0.002
   769   6 C        4.813     0.006    -0.000
   770   6 C        4.120     0.009    -0.000
   771   8 O        2.861     3.610    -0.000
   772   7 N        4.064     0.000     0.000
   773   6 C        4.433     0.002    -0.000
   774   7 N        2.869     0.803    -0.000
   775   7 N        3.496     1.886    -0.001
   776   6 C        4.929     0.024    -0.000
   777   1 H        2.174    12.204    -0.016
   778   1 H        2.127    14.971    -0.020
   779   1 H        2.260    13.406    -0.018
   780   1 H        2.272     8.803    -0.012
   781   1 H        2.371     8.738    -0.012
   782   1 H        2.524     0.001    -0.000
   783   1 H        2.518     7.657    -0.010
   784   1 H        2.370     7.984    -0.011
   785   1 H        3.705     0.000    -0.000
   786   1 H        2.668     3.239    -0.004
   787   1 H        2.308    18.190    -0.024
   788  15 P        3.190    10.546    -0.001
   789   8 O        2.175    25.337    -0.003
   790   8 O        2.209    23.132    -0.003
   791   8 O        2.691     0.871    -0.000
   792   6 C        2.883     0.554    -0.000
   793   6 C        3.307     0.247    -0.000
   794   8 O        3.076     3.414    -0.000
   795   6 C        3.325     0.268    -0.000
   796   8 O        2.654     4.630    -0.001
   797   6 C        3.357     0.511    -0.000
   798   6 C        3.746     0.084    -0.000
   799   7 N        4.180     0.000    -0.000
   800   6 C        3.561     0.129    -0.000
   801   7 N        3.230     4.513    -0.001
   802   6 C        5.324     0.000     0.000
   803   6 C        4.732     0.000    -0.000
   804   7 N        3.009     0.178    -0.000
   805   7 N        3.805     0.006    -0.000
   806   6 C        3.508     0.273    -0.000
   807   7 N        3.227     4.061    -0.001
   808   6 C        4.969     0.002    -0.000
   809   1 H        2.183    11.481    -0.015
   810   1 H        2.134    14.043    -0.019
   811   1 H        2.205    15.765    -0.021
   812   1 H        2.248     9.300    -0.012
   813   1 H        2.392     5.655    -0.008
   814   1 H        2.407     1.796    -0.002
   815   1 H        2.519     4.956    -0.007
   816   1 H        2.430     4.507    -0.006
   817   1 H        2.955     0.450    -0.001
   818   1 H        2.466     9.655    -0.013
   819   1 H        2.404     9.077    -0.012
   820  15 P        3.180    10.200    -0.001
   821   8 O        2.175    25.026    -0.003
   822   8 O        2.199    23.635    -0.003
   823   8 O        2.667     1.720    -0.000
   824   6 C        2.874     0.577    -0.000
   825   6 C        3.338     0.181    -0.000
   826   8 O        3.164     1.184    -0.000
   827   6 C        3.325     0.032    -0.000
   828   8 O        2.621     5.354    -0.001
   829   6 C        3.347     0.290    -0.000
   830   6 C        3.763     0.042    -0.000
   831   7 N        3.910     0.000    -0.000
   832   6 C        3.835     0.000    -0.000
   833   8 O        2.632     7.621    -0.001
   834   7 N        3.627     0.000    -0.000
   835   6 C        3.800     0.007    -0.000
   836   8 O        2.702     6.780    -0.001
   837   6 C        3.972     0.117    -0.000
   838   6 C        2.792     2.681    -0.000
   839   6 C        3.649     0.796    -0.000
   840   1 H        2.184    11.400    -0.015
   841   1 H        2.132    14.491    -0.019
   842   1 H        2.245    14.253    -0.019
   843   1 H        2.285     7.162    -0.010
   844   1 H        2.377     7.979    -0.011
   845   1 H        2.456     0.250    -0.000
   846   1 H        2.485     8.448    -0.011
   847   1 H        3.441     0.011    -0.000
   848   1 H        2.137    17.777    -0.024
   849   1 H        2.194    11.165    -0.015
   850   1 H        2.254     9.525    -0.013
   851   1 H        2.451     3.651    -0.005
   852  15 P        3.164    10.445    -0.001
   853   8 O        2.176    24.645    -0.003
   854   8 O        2.190    24.350    -0.003
   855   8 O        2.636     2.380    -0.000
   856   6 C        2.839     0.562    -0.000
   857   6 C        3.298     0.197    -0.000
   858   8 O        3.043     3.284    -0.000
   859   6 C        3.325     0.081    -0.000
   860   8 O        2.608     5.045    -0.001
   861   6 C        3.395     0.003    -0.000
   862   6 C        3.649     0.374    -0.000
   863   7 N        4.015     0.018    -0.000
   864   6 C        3.408     1.384    -0.000
   865   7 N        3.097     5.083    -0.002
   866   6 C        4.665     0.004    -0.000
   867   6 C        3.917     0.003    -0.000
   868   8 O        2.704     5.968    -0.001
   869   7 N        3.873     0.000     0.000
   870   6 C        4.224    -0.004     0.000
   871   7 N        2.852     0.397    -0.000
   872   7 N        3.348     3.513    -0.001
   873   6 C        4.676     0.108    -0.000
   874   1 H        2.155    13.737    -0.018
   875   1 H        2.116    14.976    -0.020
   876   1 H        2.242    14.187    -0.019
   877   1 H        2.291     7.854    -0.010
   878   1 H        2.449     2.769    -0.004
   879   1 H        2.493     0.961    -0.001
   880   1 H        2.452    11.160    -0.015
   881   1 H        2.347     8.574    -0.011
   882   1 H        3.599     0.000     0.000
   883   1 H        2.787     0.954    -0.001
   884   1 H        2.296    17.832    -0.024
   885  15 P        3.168    10.463    -0.001
   886   8 O        2.169    24.962    -0.003
   887   8 O        2.198    23.308    -0.003
   888   8 O        2.657     1.282    -0.000
   889   6 C        2.827     0.569    -0.000
   890   6 C        3.219     0.209    -0.000
   891   8 O        2.971     5.259    -0.001
   892   6 C        3.160     0.166    -0.000
   893   8 O        2.277    13.987    -0.002
   894   6 C        3.067     0.923    -0.000
   895   6 C        3.440     0.471    -0.000
   896   7 N        3.537     0.064    -0.000
   897   6 C        3.427     3.301    -0.000
   898   8 O        2.630     7.611    -0.001
   899   7 N        3.329     2.704    -0.001
   900   6 C        3.590     3.845    -0.000
   901   7 N        2.602     3.953    -0.001
   902   6 C        3.233     4.474    -0.000
   903   6 C        3.318     2.457    -0.000
   904   1 H        2.148    13.388    -0.018
   905   1 H        2.108    14.164    -0.019
   906   1 H        2.187    15.191    -0.020
   907   1 H        2.262     9.218    -0.012
   908   1 H        1.937    21.227    -0.028
   909   1 H        2.200    14.852    -0.020
   910   1 H        2.158    15.806    -0.021
   911   1 H        2.313    11.892    -0.016
   912   1 H        2.414     5.587    -0.007
   913   1 H        2.186    17.454    -0.023
   914   1 H        2.154    14.213    -0.019
   915   1 H        2.390     3.185    -0.004

 total SASA / Å² :     5575.563

     #   Z          covCN         q      C6AA      α(0)
     1   8 O        1.656    -0.425    21.331     6.235
     2   6 C        3.676     0.055    19.875     6.387
     3   6 C        3.791     0.090    19.094     6.223
     4   8 O        1.701    -0.252    18.169     5.755
     5   6 C        3.937     0.111    18.708     6.147
     6   8 O        1.658    -0.326    19.476     5.957
     7   6 C        3.828    -0.111    22.601     6.765
     8   6 C        3.720     0.151    18.262     6.103
     9   7 N        2.822    -0.014    21.517     6.889
    10   6 C        3.173     0.107    25.273     8.212
    11   7 N        1.877    -0.138    24.772     7.378
    12   6 C        3.221     0.027    26.674     8.396
    13   6 C        2.765     0.278    22.293     7.732
    14   8 O        0.858    -0.358    20.862     6.124
    15   7 N        2.706    -0.157    24.406     7.337
    16   6 C        2.818     0.226    23.245     7.900
    17   7 N        2.647    -0.197    25.285     7.468
    18   7 N        1.834    -0.228    26.818     7.674
    19   6 C        3.092     0.129    25.075     8.208
    20   1 H        0.924     0.098     1.799     2.098
    21   1 H        0.925     0.097     1.812     2.105
    22   1 H        0.924     0.099     1.796     2.096
    23   1 H        0.924     0.084     1.943     2.180
    24   1 H        0.924     0.125     1.574     1.962
    25   1 H        0.925     0.108     1.710     2.045
    26   1 H        0.925     0.124     1.580     1.966
    27   1 H        0.926     0.150     1.393     1.845
    28   1 H        0.860     0.255     0.866     1.458
    29   1 H        0.860     0.279     0.780     1.383
    30   1 H        0.860     0.279     0.781     1.384
    31   1 H        0.805     0.383     0.517     1.130
    32  15 P        3.639     0.586   136.765    21.008
    33   8 O        0.808    -0.538    24.674     6.659
    34   8 O        0.808    -0.504    23.893     6.552
    35   8 O        1.658    -0.316    19.299     5.930
    36   6 C        3.895     0.081    19.190     6.227
    37   6 C        3.821     0.092    19.053     6.212
    38   8 O        1.704    -0.279    18.623     5.827
    39   6 C        3.919     0.120    18.563     6.123
    40   8 O        1.657    -0.339    19.701     5.992
    41   6 C        3.819    -0.095    22.304     6.721
    42   6 C        3.762     0.158    18.097     6.064
    43   7 N        2.738    -0.041    22.040     6.973
    44   6 C        2.724     0.320    21.556     7.601
    45   8 O        0.860    -0.474    23.223     6.461
    46   7 N        1.841    -0.326    29.314     8.024
    47   6 C        2.851     0.163    24.483     8.110
    48   7 N        2.647    -0.191    25.154     7.449
    49   6 C        2.905    -0.078    29.945     8.973
    50   6 C        2.859     0.044    27.008     8.518
    51   1 H        0.925     0.074     2.047     2.237
    52   1 H        0.925     0.043     2.415     2.430
    53   1 H        0.924     0.067     2.117     2.275
    54   1 H        0.924     0.062     2.174     2.306
    55   1 H        0.924     0.110     1.696     2.036
    56   1 H        0.925     0.088     1.897     2.154
    57   1 H        0.925     0.096     1.820     2.110
    58   1 H        0.860     0.258     0.854     1.448
    59   1 H        0.860     0.297     0.722     1.331
    60   1 H        0.926     0.176     1.226     1.732
    61   1 H        0.926     0.134     1.503     1.917
    62  15 P        3.625     0.567   137.418    21.058
    63   8 O        0.808    -0.546    24.860     6.684
    64   8 O        0.808    -0.516    24.173     6.591
    65   8 O        1.658    -0.319    19.341     5.937
    66   6 C        3.890     0.083    19.158     6.222
    67   6 C        3.814     0.093    19.029     6.209
    68   8 O        1.704    -0.286    18.746     5.846
    69   6 C        3.921     0.123    18.531     6.118
    70   8 O        1.657    -0.347    19.849     6.014
    71   6 C        3.821    -0.097    22.329     6.725
    72   6 C        3.750     0.163    18.028     6.055
    73   7 N        2.827    -0.034    21.895     6.950
    74   6 C        3.175     0.096    25.508     8.248
    75   7 N        1.876    -0.159    25.237     7.447
    76   6 C        3.232     0.005    27.081     8.448
    77   6 C        2.877     0.148    24.777     8.160
    78   7 N        2.646    -0.199    25.338     7.476
    79   7 N        1.842    -0.265    27.732     7.804
    80   6 C        2.911     0.137    25.012     8.201
    81   7 N        1.826    -0.213    26.464     7.623
    82   6 C        3.138     0.124    25.075     8.195
    83   1 H        0.925     0.074     2.040     2.234
    84   1 H        0.925     0.042     2.426     2.436
    85   1 H        0.924     0.062     2.176     2.307
    86   1 H        0.924     0.050     2.321     2.383
    87   1 H        0.924     0.103     1.760     2.075
    88   1 H        0.925     0.080     1.984     2.202
    89   1 H        0.924     0.076     2.025     2.225
    90   1 H        0.926     0.120     1.614     1.987
    91   1 H        0.860     0.259     0.850     1.444
    92   1 H        0.860     0.301     0.710     1.320
    93   1 H        0.926     0.074     2.045     2.236
    94  15 P        3.628     0.549   138.108    21.110
    95   8 O        0.808    -0.554    25.053     6.709
    96   8 O        0.808    -0.525    24.371     6.617
    97   8 O        1.658    -0.324    19.425     5.950
    98   6 C        3.893     0.086    19.103     6.213
    99   6 C        3.814     0.095    18.997     6.204
   100   8 O        1.704    -0.290    18.815     5.856
   101   6 C        3.921     0.126    18.480     6.110
   102   8 O        1.657    -0.345    19.810     6.008
   103   6 C        3.821    -0.089    22.178     6.702
   104   6 C        3.756     0.171    17.909     6.034
   105   7 N        2.737    -0.055    22.311     7.015
   106   6 C        2.700     0.320    21.566     7.601
   107   8 O        0.858    -0.458    22.869     6.412
   108   7 N        2.695    -0.182    24.951     7.419
   109   6 C        2.761     0.253    22.742     7.810
   110   8 O        0.858    -0.322    20.178     6.023
   111   6 C        2.951    -0.028    28.693     8.786
   112   6 C        3.756    -0.160    23.659     6.935
   113   6 C        2.851     0.026    27.412     8.581
   114   1 H        0.924     0.071     2.075     2.253
   115   1 H        0.924     0.038     2.469     2.457
   116   1 H        0.924     0.058     2.228     2.334
   117   1 H        0.924     0.046     2.371     2.408
   118   1 H        0.925     0.093     1.852     2.128
   119   1 H        0.925     0.071     2.069     2.250
   120   1 H        0.925     0.069     2.092     2.262
   121   1 H        0.860     0.258     0.853     1.447
   122   1 H        0.925     0.155     1.356     1.821
   123   1 H        0.925     0.168     1.275     1.766
   124   1 H        0.924     0.091     1.867     2.137
   125   1 H        0.926     0.120     1.613     1.986
   126  15 P        3.621     0.520   139.144    21.189
   127   8 O        0.808    -0.565    25.310     6.744
   128   8 O        0.808    -0.550    24.948     6.695
   129   8 O        1.658    -0.332    19.570     5.972
   130   6 C        3.887     0.095    18.966     6.191
   131   6 C        3.821     0.103    18.867     6.181
   132   8 O        1.704    -0.312    19.209     5.917
   133   6 C        3.922     0.130    18.411     6.098
   134   8 O        1.657    -0.351    19.925     6.026
   135   6 C        3.818    -0.082    22.046     6.682
   136   6 C        3.761     0.180    17.769     6.009
   137   7 N        2.737    -0.077    22.733     7.081
   138   6 C        2.723     0.327    21.441     7.580
   139   8 O        0.860    -0.509    23.979     6.565
   140   7 N        1.842    -0.306    28.775     7.950
   141   6 C        2.850     0.168    24.375     8.092
   142   7 N        2.647    -0.181    24.918     7.414
   143   6 C        2.904    -0.090    30.265     9.021
   144   6 C        2.859     0.044    27.006     8.518
   145   1 H        0.924     0.059     2.216     2.328
   146   1 H        0.925     0.034     2.528     2.487
   147   1 H        0.924     0.044     2.398     2.422
   148   1 H        0.924     0.034     2.529     2.487
   149   1 H        0.925     0.074     2.045     2.236
   150   1 H        0.925     0.072     2.067     2.248
   151   1 H        0.924     0.067     2.117     2.275
   152   1 H        0.860     0.295     0.729     1.338
   153   1 H        0.860     0.279     0.778     1.382
   154   1 H        0.926     0.145     1.423     1.866
   155   1 H        0.926     0.076     2.015     2.220
   156  15 P        3.629     0.509   139.555    21.221
   157   8 O        0.808    -0.570    25.415     6.758
   158   8 O        0.808    -0.562    25.238     6.734
   159   8 O        1.658    -0.329    19.522     5.965
   160   6 C        3.889     0.092    19.013     6.199
   161   6 C        3.818     0.098    18.955     6.196
   162   8 O        1.704    -0.316    19.268     5.926
   163   6 C        3.925     0.131    18.402     6.097
   164   8 O        1.657    -0.352    19.938     6.028
   165   6 C        3.823    -0.080    22.008     6.676
   166   6 C        3.756     0.173    17.885     6.030
   167   7 N        2.827    -0.047    22.148     6.990
   168   6 C        3.167     0.110    25.234     8.208
   169   7 N        1.878    -0.196    26.074     7.569
   170   6 C        3.223     0.014    26.949     8.437
   171   6 C        2.765     0.262    22.578     7.782
   172   8 O        0.858    -0.334    20.413     6.058
   173   7 N        2.706    -0.178    24.854     7.404
   174   6 C        2.818     0.203    23.693     7.975
   175   7 N        2.647    -0.212    25.621     7.518
   176   7 N        1.834    -0.272    27.913     7.829
   177   6 C        3.089     0.127    25.124     8.216
   178   1 H        0.925     0.058     2.224     2.332
   179   1 H        0.924     0.040     2.447     2.446
   180   1 H        0.924     0.060     2.205     2.322
   181   1 H        0.924     0.027     2.633     2.537
   182   1 H        0.924     0.070     2.091     2.261
   183   1 H        0.925     0.084     1.937     2.176
   184   1 H        0.924     0.083     1.946     2.182
   185   1 H        0.926     0.063     2.168     2.302
   186   1 H        0.860     0.272     0.804     1.405
   187   1 H        0.860     0.284     0.764     1.369
   188   1 H        0.860     0.261     0.843     1.438
   189  15 P        3.638     0.521   139.130    21.188
   190   8 O        0.808    -0.567    25.338     6.748
   191   8 O        0.808    -0.557    25.118     6.718
   192   8 O        1.657    -0.325    19.454     5.954
   193   6 C        3.901     0.090    19.035     6.202
   194   6 C        3.857     0.098    18.925     6.187
   195   8 O        1.703    -0.310    19.172     5.912
   196   6 C        3.916     0.128    18.444     6.104
   197   8 O        1.658    -0.357    20.039     6.043
   198   6 C        3.822    -0.091    22.220     6.708
   199   6 C        3.786     0.163    17.992     6.042
   200   7 N        2.827    -0.048    22.157     6.991
   201   6 C        3.161     0.107    25.344     8.230
   202   7 N        1.878    -0.176    25.622     7.504
   203   6 C        3.217     0.016    26.972     8.447
   204   6 C        2.877     0.156    24.615     8.133
   205   7 N        2.645    -0.169    24.660     7.375
   206   7 N        1.842    -0.140    24.825     7.384
   207   6 C        2.913     0.118    25.412     8.266
   208   7 N        1.826    -0.164    25.353     7.461
   209   6 C        3.140     0.113    25.300     8.231
   210   1 H        0.925     0.058     2.224     2.332
   211   1 H        0.924     0.041     2.437     2.441
   212   1 H        0.924     0.059     2.212     2.326
   213   1 H        0.925     0.031     2.572     2.508
   214   1 H        0.924     0.087     1.904     2.158
   215   1 H        0.925     0.095     1.829     2.115
   216   1 H        0.924     0.090     1.882     2.146
   217   1 H        0.926     0.066     2.130     2.282
   218   1 H        0.860     0.310     0.685     1.297
   219   1 H        0.860     0.277     0.785     1.388
   220   1 H        0.926     0.159     1.330     1.803
   221  15 P        3.624     0.541   138.378    21.131
   222   8 O        0.808    -0.570    25.429     6.760
   223   8 O        0.808    -0.543    24.784     6.673
   224   8 O        1.657    -0.315    19.270     5.926
   225   6 C        3.891     0.084    19.135     6.219
   226   6 C        3.806     0.086    19.152     6.230
   227   8 O        1.702    -0.277    18.603     5.823
   228   6 C        3.943     0.125    18.487     6.110
   229   8 O        1.657    -0.320    19.356     5.939
   230   6 C        3.826    -0.088    22.164     6.699
   231   6 C        3.748     0.158    18.111     6.070
   232   7 N        2.826    -0.031    21.849     6.942
   233   6 C        3.168     0.109    25.264     8.213
   234   7 N        1.878    -0.159    25.232     7.446
   235   6 C        3.221     0.023    26.773     8.412
   236   6 C        2.876     0.156    24.616     8.133
   237   7 N        2.645    -0.170    24.680     7.378
   238   7 N        1.841    -0.138    24.778     7.377
   239   6 C        2.910     0.111    25.558     8.290
   240   7 N        1.826    -0.131    24.615     7.352
   241   6 C        3.140     0.116    25.220     8.218
   242   1 H        0.925     0.068     2.111     2.272
   243   1 H        0.924     0.031     2.566     2.505
   244   1 H        0.924     0.088     1.894     2.152
   245   1 H        0.924     0.019     2.754     2.595
   246   1 H        0.924     0.066     2.135     2.285
   247   1 H        0.925     0.087     1.905     2.158
   248   1 H        0.924     0.121     1.603     1.980
[...]
   645   6 C    3.974 --   646 N    1.388   647 N    1.283   644 C    1.172
   646   7 N    3.446 --   645 C    1.388   660 H    0.905   659 H    0.872
   647   7 N    3.042 --   648 C    1.408   645 C    1.283
   648   6 C    3.918 --   649 N    1.435   647 N    1.408   661 H    0.937
   649   7 N    2.981 --   648 C    1.435   650 C    1.267
   650   6 C    3.912 --   644 C    1.277   649 N    1.267   641 N    1.160
   651   1 H    0.992 --   634 C    0.963
   652   1 H    0.995 --   634 C    0.969
   653   1 H    0.984 --   635 C    0.947
   654   1 H    0.996 --   637 C    0.964
   655   1 H    0.989 --   639 C    0.965
   656   1 H    0.987 --   639 C    0.959
   657   1 H    0.980 --   640 C    0.941
   658   1 H    0.989 --   642 C    0.952
   659   1 H    0.918 --   646 N    0.872
   660   1 H    0.923 --   646 N    0.905
   661   1 H    0.977 --   648 C    0.937
   662  15 P    5.576 --   664 O    1.668   663 O    1.643   665 O    1.122
                           638 O    1.088
   663   8 O    1.804 --   662 P    1.643
   664   8 O    1.835 --   662 P    1.668
   665   8 O    2.258 --   662 P    1.122   666 C    0.945
   666   6 C    3.891 --   667 C    0.966   685 H    0.959   684 H    0.958
                           665 O    0.945
   667   6 C    3.908 --   668 O    0.981   666 C    0.966   669 C    0.958
                           686 H    0.926
   668   8 O    2.073 --   667 C    0.981   672 C    0.966
   669   6 C    3.913 --   671 C    0.978   667 C    0.958   687 H    0.953
                           670 O    0.952
   670   8 O    2.225 --   695 P    1.077   669 C    0.952
   671   6 C    3.932 --   669 C    0.978   672 C    0.965   688 H    0.957
                           689 H    0.950
   672   6 C    3.886 --   668 O    0.966   671 C    0.965   673 N    0.964
                           690 H    0.916
   673   7 N    3.612 --   674 C    1.234   683 C    1.155   672 C    0.964
   674   6 C    3.856 --   675 N    1.547   673 N    1.234   691 H    0.946
   675   7 N    3.001 --   674 C    1.547   676 C    1.251
   676   6 C    3.823 --   683 C    1.255   675 N    1.251   677 C    1.093
   677   6 C    3.958 --   678 O    1.668   679 N    1.114   676 C    1.093
   678   8 O    2.008 --   677 C    1.668   679 N    0.144
   679   7 N    3.507 --   680 C    1.174   677 C    1.114   692 H    0.857
                           678 O    0.144
   680   6 C    3.958 --   681 N    1.423   682 N    1.289   679 N    1.174
   681   7 N    3.403 --   680 C    1.423   694 H    0.890   693 H    0.865
   682   7 N    2.870 --   683 C    1.314   680 C    1.289
   683   6 C    3.901 --   682 N    1.314   676 C    1.255   673 N    1.155
   684   1 H    0.986 --   666 C    0.958
   685   1 H    0.985 --   666 C    0.959
   686   1 H    0.960 --   667 C    0.926
   687   1 H    0.986 --   669 C    0.953
   688   1 H    0.981 --   671 C    0.957
   689   1 H    0.978 --   671 C    0.950
   690   1 H    0.951 --   672 C    0.916
   691   1 H    0.982 --   674 C    0.946
   692   1 H    0.925 --   679 N    0.857
   693   1 H    0.915 --   681 N    0.865
   694   1 H    0.909 --   681 N    0.890
   695  15 P    5.492 --   697 O    1.647   696 O    1.622   698 O    1.090
                           670 O    1.077
   696   8 O    1.781 --   695 P    1.622
   697   8 O    1.864 --   695 P    1.647
   698   8 O    2.235 --   695 P    1.090   699 C    0.958
   699   6 C    3.879 --   700 C    0.969   698 O    0.958   715 H    0.943
                           714 H    0.943
   700   6 C    3.902 --   701 O    0.984   699 C    0.969   702 C    0.954
                           716 H    0.911
   701   8 O    2.107 --   700 C    0.984   705 C    0.977
   702   6 C    3.886 --   704 C    0.967   700 C    0.954   703 O    0.941
                           717 H    0.937
   703   8 O    2.267 --   725 P    1.116   702 C    0.941
   704   6 C    3.892 --   702 C    0.967   719 H    0.955   718 H    0.949
                           705 C    0.942
   705   6 C    3.876 --   701 O    0.977   706 N    0.968   704 C    0.942
                           720 H    0.905
   706   7 N    3.519 --   713 C    1.231   707 C    1.045   705 C    0.968
   707   6 C    3.947 --   708 O    1.594   709 N    1.223   706 N    1.045
   708   8 O    1.972 --   707 C    1.594   709 N    0.141
   709   7 N    2.983 --   710 C    1.328   707 C    1.223   708 O    0.141
                           711 N    0.105
   710   6 C    3.957 --   711 N    1.419   709 N    1.328   712 C    1.124
   711   7 N    3.437 --   710 C    1.419   722 H    0.907   721 H    0.874
                           709 N    0.105
   712   6 C    3.811 --   713 C    1.599   710 C    1.124   723 H    0.927
   713   6 C    3.913 --   712 C    1.599   706 N    1.231   724 H    0.925
   714   1 H    0.968 --   699 C    0.943
   715   1 H    0.968 --   699 C    0.943
   716   1 H    0.944 --   700 C    0.911
   717   1 H    0.979 --   702 C    0.937
   718   1 H    0.975 --   704 C    0.949
   719   1 H    0.980 --   704 C    0.955
   720   1 H    0.945 --   705 C    0.905
   721   1 H    0.909 --   711 N    0.874
   722   1 H    0.928 --   711 N    0.907
   723   1 H    0.956 --   712 C    0.927
   724   1 H    0.958 --   713 C    0.925
   725  15 P    5.528 --   726 O    1.639   727 O    1.638   703 O    1.116
                           728 O    1.077
   726   8 O    1.806 --   725 P    1.639
   727   8 O    1.823 --   725 P    1.638
   728   8 O    2.233 --   725 P    1.077   729 C    0.962
   729   6 C    3.868 --   728 O    0.962   730 C    0.945   745 H    0.944
                           744 H    0.943
   730   6 C    3.896 --   731 O    0.986   732 C    0.964   729 C    0.945
                           746 H    0.909
   731   8 O    2.137 --   735 C    0.992   730 C    0.986
   732   6 C    3.896 --   734 C    0.978   730 C    0.964   747 H    0.943
                           733 O    0.929
   733   8 O    2.268 --   755 P    1.123   732 C    0.929
   734   6 C    3.926 --   732 C    0.978   749 H    0.961   748 H    0.953
                           735 C    0.945
   735   6 C    3.897 --   731 O    0.992   736 N    0.967   734 C    0.945
                           750 H    0.909
   736   7 N    3.527 --   743 C    1.225   737 C    1.053   735 C    0.967
   737   6 C    3.946 --   738 O    1.597   739 N    1.215   736 N    1.053
   738   8 O    1.959 --   737 C    1.597   739 N    0.134
   739   7 N    3.016 --   740 C    1.325   737 C    1.215   738 O    0.134
                           741 N    0.105
   740   6 C    3.950 --   741 N    1.421   739 N    1.325   742 C    1.119
   741   7 N    3.426 --   740 C    1.421   751 H    0.881   752 H    0.857
                           739 N    0.105
   742   6 C    3.824 --   743 C    1.605   740 C    1.119   753 H    0.923
   743   6 C    3.906 --   742 C    1.605   736 N    1.225   754 H    0.917
   744   1 H    0.973 --   729 C    0.943
   745   1 H    0.969 --   729 C    0.944
   746   1 H    0.944 --   730 C    0.909
   747   1 H    0.982 --   732 C    0.943
   748   1 H    0.980 --   734 C    0.953
   749   1 H    0.991 --   734 C    0.961
   750   1 H    0.948 --   735 C    0.909
   751   1 H    0.936 --   741 N    0.881
   752   1 H    0.907 --   741 N    0.857
   753   1 H    0.960 --   742 C    0.923
   754   1 H    0.959 --   743 C    0.917
   755  15 P    5.589 --   757 O    1.674   756 O    1.651   733 O    1.123
                           758 O    1.090
   756   8 O    1.816 --   755 P    1.651
   757   8 O    1.841 --   755 P    1.674
   758   8 O    2.248 --   755 P    1.090   759 C    0.961
   759   6 C    3.933 --   760 C    0.987   778 H    0.968   758 O    0.961
                           777 H    0.959
   760   6 C    3.951 --   759 C    0.987   761 O    0.976   762 C    0.958
                           779 H    0.952
   761   8 O    2.084 --   765 C    0.976   760 C    0.976
   762   6 C    3.906 --   764 C    0.983   780 H    0.959   760 C    0.958
                           763 O    0.928
   763   8 O    2.257 --   788 P    1.118   762 C    0.928
   764   6 C    3.978 --   762 C    0.983   765 C    0.974   781 H    0.967
                           782 H    0.965
   765   6 C    3.935 --   761 O    0.976   764 C    0.974   766 N    0.964
                           783 H    0.949
   766   7 N    3.619 --   767 C    1.219   776 C    1.178   765 C    0.964
   767   6 C    3.837 --   768 N    1.543   766 N    1.219   784 H    0.941
   768   7 N    2.998 --   767 C    1.543   769 C    1.253
   769   6 C    3.846 --   776 C    1.263   768 N    1.253   770 C    1.101
   770   6 C    3.944 --   771 O    1.661   769 C    1.101   772 N    1.093
   771   8 O    1.992 --   770 C    1.661   772 N    0.134
   772   7 N    3.505 --   773 C    1.189   770 C    1.093   785 H    0.867
                           771 O    0.134
   773   6 C    3.947 --   774 N    1.363   775 N    1.318   772 N    1.189
   774   7 N    3.389 --   773 C    1.363   787 H    0.912   786 H    0.893
   775   7 N    2.866 --   773 C    1.318   776 C    1.284
   776   6 C    3.902 --   775 N    1.284   769 C    1.263   766 N    1.178
   777   1 H    0.985 --   759 C    0.959
   778   1 H    0.994 --   759 C    0.968
   779   1 H    0.992 --   760 C    0.952
   780   1 H    0.992 --   762 C    0.959
   781   1 H    0.988 --   764 C    0.967
   782   1 H    0.994 --   764 C    0.965
   783   1 H    0.991 --   765 C    0.949
   784   1 H    0.978 --   767 C    0.941
   785   1 H    0.939 --   772 N    0.867
   786   1 H    0.937 --   774 N    0.893
   787   1 H    0.930 --   774 N    0.912
   788  15 P    5.650 --   790 O    1.709   789 O    1.677   763 O    1.118
                           791 O    1.094
   789   8 O    1.850 --   788 P    1.677
   790   8 O    1.884 --   788 P    1.709
   791   8 O    2.255 --   788 P    1.094   792 C    0.959
   792   6 C    3.940 --   793 C    0.984   810 H    0.970   809 H    0.964
                           791 O    0.959
   793   6 C    3.956 --   792 C    0.984   794 O    0.973   795 C    0.967
                           811 H    0.955
   794   8 O    2.077 --   793 C    0.973   798 C    0.970
   795   6 C    3.922 --   797 C    0.987   793 C    0.967   812 H    0.962
                           796 O    0.929
   796   8 O    2.264 --   820 P    1.117   795 C    0.929
   797   6 C    3.985 --   795 C    0.987   798 C    0.981   814 H    0.966
                           813 H    0.965
   798   6 C    3.939 --   797 C    0.981   794 O    0.970   799 N    0.965
                           815 H    0.953
   799   7 N    3.603 --   800 C    1.209   808 C    1.167   798 C    0.965
   800   6 C    3.915 --   801 N    1.588   799 N    1.209   816 H    0.948
   801   7 N    3.014 --   800 C    1.588   802 C    1.202
   802   6 C    3.901 --   808 C    1.289   801 N    1.202   803 C    1.174
   803   6 C    3.970 --   804 N    1.388   805 N    1.278   802 C    1.174
   804   7 N    3.421 --   803 C    1.388   818 H    0.890   817 H    0.869
   805   7 N    3.026 --   806 C    1.416   803 C    1.278
   806   6 C    3.939 --   807 N    1.436   805 N    1.416   819 H    0.954
   807   7 N    2.956 --   806 C    1.436   808 C    1.258
   808   6 C    3.922 --   802 C    1.289   807 N    1.258   799 N    1.167
   809   1 H    0.993 --   792 C    0.964
   810   1 H    0.998 --   792 C    0.970
   811   1 H    0.994 --   793 C    0.955
   812   1 H    0.997 --   795 C    0.962
   813   1 H    0.990 --   797 C    0.965
   814   1 H    0.995 --   797 C    0.966
   815   1 H    0.995 --   798 C    0.953
   816   1 H    0.986 --   800 C    0.948
   817   1 H    0.924 --   804 N    0.869
   818   1 H    0.908 --   804 N    0.890
   819   1 H    0.994 --   806 C    0.954
   820  15 P    5.697 --   822 O    1.724   821 O    1.705   796 O    1.117
                           823 O    1.100
   821   8 O    1.890 --   820 P    1.705
   822   8 O    1.910 --   820 P    1.724
   823   8 O    2.262 --   820 P    1.100   824 C    0.957
   824   6 C    3.943 --   825 C    0.987   841 H    0.970   840 H    0.966
                           823 O    0.957
   825   6 C    3.959 --   824 C    0.987   826 O    0.975   827 C    0.963
                           842 H    0.956
   826   8 O    2.071 --   825 C    0.975   830 C    0.969
   827   6 C    3.924 --   829 C    0.983   825 C    0.963   843 H    0.962
                           828 O    0.938
   828   8 O    2.260 --   852 P    1.108   827 C    0.938
   829   6 C    3.975 --   827 C    0.983   830 C    0.973   844 H    0.969
                           845 H    0.966
   830   6 C    3.930 --   829 C    0.973   826 O    0.969   831 N    0.966
                           846 H    0.951
   831   7 N    3.520 --   839 C    1.189   832 C    1.089   830 C    0.966
                           833 O    0.110
   832   6 C    3.951 --   833 O    1.637   834 N    1.153   831 N    1.089
   833   8 O    1.961 --   832 C    1.637   834 N    0.140   831 N    0.110
   834   7 N    3.492 --   832 C    1.153   835 C    1.109   847 H    0.855
                           836 O    0.142   833 O    0.140
   835   6 C    3.948 --   836 O    1.683   834 N    1.109   837 C    1.070
   836   8 O    2.030 --   835 C    1.683   834 N    0.142
   837   6 C    3.858 --   839 C    1.557   835 C    1.070   838 C    1.050
   838   6 C    3.901 --   837 C    1.050   849 H    0.979   850 H    0.920
                           848 H    0.899
   839   6 C    3.867 --   837 C    1.557   831 N    1.189   851 H    0.948
   840   1 H    0.995 --   824 C    0.966
   841   1 H    0.998 --   824 C    0.970
   842   1 H    0.996 --   825 C    0.956
   843   1 H    0.997 --   827 C    0.962
   844   1 H    0.993 --   829 C    0.969
   845   1 H    0.994 --   829 C    0.966
   846   1 H    0.993 --   830 C    0.951
   847   1 H    0.931 --   834 N    0.855
   848   1 H    0.930 --   838 C    0.899
   849   1 H    0.992 --   838 C    0.979
   850   1 H    0.949 --   838 C    0.920
   851   1 H    0.988 --   839 C    0.948
   852  15 P    5.717 --   854 O    1.727   853 O    1.721   855 O    1.112
                           828 O    1.108
   853   8 O    1.912 --   852 P    1.721
   854   8 O    1.921 --   852 P    1.727
   855   8 O    2.267 --   852 P    1.112   856 C    0.948
   856   6 C    3.936 --   857 C    0.987   875 H    0.970   874 H    0.968
                           855 O    0.948
   857   6 C    3.956 --   856 C    0.987   858 O    0.972   859 C    0.966
                           876 H    0.956
   858   8 O    2.070 --   857 C    0.972   862 C    0.966
   859   6 C    3.933 --   861 C    0.983   857 C    0.966   877 H    0.964
                           860 O    0.947
   860   8 O    2.246 --   885 P    1.088   859 C    0.947
   861   6 C    3.983 --   859 C    0.983   878 H    0.972   862 C    0.972
                           879 H    0.966
   862   6 C    3.924 --   861 C    0.972   863 N    0.967   858 O    0.966
                           880 H    0.950
   863   7 N    3.604 --   864 C    1.222   873 C    1.154   862 C    0.967
   864   6 C    3.867 --   865 N    1.561   863 N    1.222   881 H    0.958
   865   7 N    2.994 --   864 C    1.561   866 C    1.231
   866   6 C    3.826 --   873 C    1.279   865 N    1.231   867 C    1.103
   867   6 C    3.957 --   868 O    1.659   869 N    1.109   866 C    1.103
   868   8 O    1.991 --   867 C    1.659   869 N    0.140
   869   7 N    3.503 --   870 C    1.182   867 C    1.109   882 H    0.853
                           868 O    0.140
   870   6 C    3.954 --   871 N    1.384   872 N    1.311   869 N    1.182
   871   7 N    3.376 --   870 C    1.384   884 H    0.909   883 H    0.863
   872   7 N    2.856 --   870 C    1.311   873 C    1.290
   873   6 C    3.900 --   872 N    1.290   866 C    1.279   863 N    1.154
   874   1 H    0.997 --   856 C    0.968
   875   1 H    0.998 --   856 C    0.970
   876   1 H    0.996 --   857 C    0.956
   877   1 H    0.999 --   859 C    0.964
   878   1 H    0.994 --   861 C    0.972
   879   1 H    0.991 --   861 C    0.966
   880   1 H    0.991 --   862 C    0.950
   881   1 H    0.994 --   864 C    0.958
   882   1 H    0.929 --   869 N    0.853
   883   1 H    0.921 --   871 N    0.863
   884   1 H    0.927 --   871 N    0.909
   885  15 P    5.694 --   887 O    1.716   886 O    1.713   888 O    1.126
                           860 O    1.088
   886   8 O    1.898 --   885 P    1.713
   887   8 O    1.904 --   885 P    1.716
   888   8 O    2.275 --   885 P    1.126   889 C    0.940
   889   6 C    3.928 --   890 C    0.986   904 H    0.968   905 H    0.967
                           888 O    0.940
   890   6 C    3.943 --   889 C    0.986   892 C    0.968   891 O    0.968
                           906 H    0.950
   891   8 O    2.073 --   895 C    0.976   890 C    0.968
   892   6 C    3.946 --   893 O    1.004   894 C    0.972   890 C    0.968
                           907 H    0.958
   893   8 O    1.920 --   892 C    1.004   908 H    0.850
   894   6 C    3.956 --   892 C    0.972   909 H    0.971   895 C    0.971
                           910 H    0.966
   895   6 C    3.900 --   891 O    0.976   894 C    0.971   896 N    0.945
                           911 H    0.937
   896   7 N    3.520 --   903 C    1.233   897 C    1.054   895 C    0.945
   897   6 C    3.943 --   898 O    1.568   899 N    1.233   896 N    1.054
   898   8 O    1.928 --   897 C    1.568   899 N    0.131
   899   7 N    2.986 --   900 C    1.337   897 C    1.233   898 O    0.131
                           901 N    0.109
   900   6 C    3.966 --   901 N    1.396   899 N    1.337   902 C    1.144
   901   7 N    3.429 --   900 C    1.396   913 H    0.917   912 H    0.871
                           899 N    0.109
   902   6 C    3.881 --   903 C    1.615   900 C    1.144   914 H    0.955
   903   6 C    3.947 --   902 C    1.615   896 N    1.233   915 H    0.950
   904   1 H    0.997 --   889 C    0.968
   905   1 H    0.996 --   889 C    0.967
   906   1 H    0.988 --   890 C    0.950
   907   1 H    0.996 --   892 C    0.958
   908   1 H    0.863 --   893 O    0.850
   909   1 H    0.991 --   894 C    0.971
   910   1 H    0.988 --   894 C    0.966
   911   1 H    0.973 --   895 C    0.937
   912   1 H    0.915 --   901 N    0.871
   913   1 H    0.934 --   901 N    0.917
   914   1 H    0.987 --   902 C    0.955
   915   1 H    0.985 --   903 C    0.950
 ---------------------------------------------------------------------------

Topologies differ in total number of bonds
Writing topology from bond orders to xtbtopo.mol

molecular dipole:
                 x           y           z       tot (Debye)
 q only:        2.463    -153.566     106.031
   full:        1.190    -144.633      96.786     442.350
molecular quadrupole (traceless):
                xx          xy          yy          xz          yz          zz
 q only:     -723.896    -898.352     501.083    -453.610    1621.321     222.814
  q+dip:     -593.256    -768.586     512.100    -343.776    1421.957      81.155
   full:     -580.938    -770.586     525.709    -353.829    1430.875      55.229


           -------------------------------------------------
          | TOTAL ENERGY            -1853.699847823861 Eh   |
          | GRADIENT NORM               0.574892509757 Eh/α |
          | HOMO-LUMO GAP               0.000673490018 eV   |
           -------------------------------------------------

------------------------------------------------------------------------
 * finished run on 2023/03/20 at 14:31:03.557     
------------------------------------------------------------------------
 total:
 * wall-time:     0 d,  0 h,  1 min, 39.116 sec
 *  cpu-time:     0 d,  0 h, 16 min,  5.885 sec
 * ratio c/w:     9.745 speedup
 SCF:
 * wall-time:     0 d,  0 h,  1 min, 37.592 sec
 *  cpu-time:     0 d,  0 h, 15 min, 57.972 sec
 * ratio c/w:     9.816 speedup

