      -----------------------------------------------------------      
     |                   =====================                   |     
     |                           x T B                           |     
     |                   =====================                   |     
     |                         S. Grimme                         |     
     |          Mulliken Center for Theoretical Chemistry        |     
     |                    University of Bonn                     |     
      -----------------------------------------------------------      

   * xtb version 6.5.1 (579679a) compiled by 'ehlert@majestix' on 2022-07-11

   xtb is free software: you can redistribute it and/or modify it under
   the terms of the GNU Lesser General Public License as published by
   the Free Software Foundation, either version 3 of the License, or
   (at your option) any later version.
   
   xtb is distributed in the hope that it will be useful,
   but WITHOUT ANY WARRANTY; without even the implied warranty of
   MERCHANTABILITY or FITNESS FOR A PARTICULAR PURPOSE.  See the
   GNU Lesser General Public License for more details.
   
   Cite this work as:
   * C. Bannwarth, E. Caldeweyher, S. Ehlert, A. Hansen, P. Pracht,
     J. Seibert, S. Spicher, S. Grimme, WIREs Comput. Mol. Sci., 2020, 11,
     e01493. DOI: 10.1002/wcms.1493
   
   for GFN2-xTB:
   * C. Bannwarth, S. Ehlert and S. Grimme., J. Chem. Theory Comput., 2019,
     15, 1652-1671. DOI: 10.1021/acs.jctc.8b01176
   for GFN1-xTB:
   * S. Grimme, C. Bannwarth, P. Shushkov, J. Chem. Theory Comput., 2017,
     13, 1989-2009. DOI: 10.1021/acs.jctc.7b00118
   for GFN0-xTB:
   * P. Pracht, E. Caldeweyher, S. Ehlert, S. Grimme, ChemRxiv, 2019, preprint.
     DOI: 10.26434/chemrxiv.8326202.v1
   for GFN-FF:
   * S. Spicher and S. Grimme, Angew. Chem. Int. Ed., 2020, 59, 15665-15673.
     DOI: 10.1002/anie.202004239
   
   for ALPB and GBSA implicit solvation:
   * S. Ehlert, M. Stahn, S. Spicher, S. Grimme, J. Chem. Theory Comput.,
     2021, 17, 4250-4261. DOI: 10.1021/acs.jctc.1c00471
   
   for DFT-D4:
   * E. Caldeweyher, C. Bannwarth and S. Grimme, J. Chem. Phys., 2017,
     147, 034112. DOI: 10.1063/1.4993215
   * E. Caldeweyher, S. Ehlert, A. Hansen, H. Neugebauer, S. Spicher,
     C. Bannwarth and S. Grimme, J. Chem. Phys., 2019, 150, 154122.
     DOI: 10.1063/1.5090222
   * E. Caldeweyher, J.-M. Mewes, S. Ehlert and S. Grimme, Phys. Chem. Chem. Phys.
     2020, 22, 8499-8512. DOI: 10.1039/D0CP00502A
   
   for sTDA-xTB:
   * S. Grimme and C. Bannwarth, J. Chem. Phys., 2016, 145, 054103.
     DOI: 10.1063/1.4959605
   
   in the mass-spec context:
   * V. Asgeirsson, C. Bauer and S. Grimme, Chem. Sci., 2017, 8, 4879.
     DOI: 10.1039/c7sc00601b
   * J. Koopman and S. Grimme, ACS Omega 2019, 4, 12, 15120-15133.
     DOI: 10.1021/acsomega.9b02011
   
   for metadynamics refer to:
   * S. Grimme, J. Chem. Theory Comput., 2019, 155, 2847-2862
     DOI: 10.1021/acs.jctc.9b00143
   
   for SPH calculations refer to:
   * S. Spicher and S. Grimme, J. Chem. Theory Comput., 2021, 17, 1701-1714
     DOI: 10.1021/acs.jctc.0c01306
   
   with help from (in alphabetical order)
   P. Atkinson, C. Bannwarth, F. Bohle, G. Brandenburg, E. Caldeweyher
   M. Checinski, S. Dohm, S. Ehlert, S. Ehrlich, I. Gerasimov, C. Hölzer
   A. Katbashev, J. Koopman, C. Lavigne, S. Lehtola, F. März, M. Müller,
   F. Musil, H. Neugebauer, J. Pisarek, C. Plett, P. Pracht, F. Pultar,
   J. Seibert, P. Shushkov, S. Spicher, M. Stahn, M. Steiner, T. Strunk,
   J. Stückrath, T. Rose, and J. Unsleber
   
 * started run on 2023/04/11 at 13:21:32.367     

           -------------------------------------------------
          |                Calculation Setup                |
           -------------------------------------------------

          program call               : /N/u/schandy/BigRed3/bin/xtb-6.5.1/bin/xtb 5UZF_min.xyz --alpb water
          hostname                   : nid00468
          coordinate file            : 5UZF_min.xyz
          omp threads                :                    10

   ID    Z sym.   atoms
    1    8 O      1, 4, 6, 11, 29-31, 34, 36, 44, 62-64, 67, 69, 94-96, 99,
                  101, 106, 109, 126-128, 131, 133, 138, 141, 158-160, 163,
                  165, 170, 173, 190-192, 195, 197, 202, 205, 222-224, 227,
                  229, 234, 237, 254-256, 259, 261, 266, 269, 286-288, 291,
                  293, 301, 319-321, 324, 326, 334, 352-354, 357, 359, 364,
                  381, 384, 386, 394, 412-414, 417, 419, 424, 442-444, 447,
                  449, 454, 472-474, 477, 479, 504-506, 509, 511, 536-538,
                  541, 543, 568-570, 573, 575, 600-602, 605, 607, 632-634,
                  637, 639, 664-666, 669, 671, 676, 679, 696-698, 701, 703,
                  708, 726-728, 731, 733, 741
    2    6 C      2, 3, 5, 7, 8, 10, 13, 15, 16, 32, 33, 35, 37, 38, 40, 42,
                  43, 46, 49, 65, 66, 68, 70, 71, 73, 75, 76, 79, 81, 97, 98,
                  100, 102, 103, 105, 108, 110-112, 129, 130, 132, 134, 135,
                  137, 140, 142-144, 161, 162, 164, 166, 167, 169, 172,
                  174-176, 193, 194, 196, 198, 199, 201, 204, 206-208, 225,
                  226, 228, 230, 231, 233, 236, 238-240, 257, 258, 260, 262,
                  263, 265, 268, 270-272, 289, 290, 292, 294, 295, 297, 299,
                  300, 303, 306, 322, 323, 325, 327, 328, 330, 332, 333, 336,
                  339, 355, 356, 358, 360, 361, 363, 366, 368, 369, 382, 383,
                  385, 387, 388, 390, 392, 393, 396, 399, 415, 416, 418, 420,
                  421, 423, 426, 428, 429, 445, 446, 448, 450, 451, 453, 456,
                  458, 459, 475, 476, 478, 480, 481, 483, 485, 486, 489, 491,
                  507, 508, 510, 512, 513, 515, 517, 518, 521, 523, 539, 540,
                  542, 544, 545, 547, 549, 550, 553, 555, 571, 572, 574, 576,
                  577, 579, 581, 582, 585, 587, 603, 604, 606, 608, 609, 611,
                  613, 614, 617, 619, 635, 636, 638, 640, 641, 643, 645, 646,
                  649, 651, 667, 668, 670, 672, 673, 675, 678, 680-682, 699,
                  700, 702, 704, 705, 707, 710, 712, 713, 729, 730, 732, 734,
                  735, 737, 739, 740, 743, 746
    3    7 N      9, 12, 14, 39, 41, 45, 47, 48, 72, 74, 77, 78, 80, 104,
                  107, 136, 139, 168, 171, 200, 203, 232, 235, 264, 267, 296,
                  298, 302, 304, 305, 329, 331, 335, 337, 338, 362, 365, 367,
                  389, 391, 395, 397, 398, 422, 425, 427, 452, 455, 457, 482,
                  484, 487, 488, 490, 514, 516, 519, 520, 522, 546, 548, 551,
                  552, 554, 578, 580, 583, 584, 586, 610, 612, 615, 616, 618,
                  642, 644, 647, 648, 650, 674, 677, 706, 709, 711, 736, 738,
                  742, 744, 745
    4    1 H      17-27, 50-60, 82-92, 113-124, 145-156, 177-188, 209-220,
                  241-252, 273-284, 307-317, 340-350, 370-380, 400-410,
                  430-440, 460-470, 492-502, 524-534, 556-566, 588-598,
                  620-630, 652-662, 683-694, 714-724, 747-757
    5   15 P      28, 61, 93, 125, 157, 189, 221, 253, 285, 318, 351, 411,
                  441, 471, 503, 535, 567, 599, 631, 663, 695, 725

molecular fragmentation (1/2 indicates fragments):
111111111111111111111111111111111111111111111111111111111111111111111111
111111111111111111111111111111111111111111111111111111111111111111111111
111111111111111111111111111111111111111111111111111111111111111111111111
111111111111111111111111111111111111111111111111111111111111111111111111
111111111111111111111111111111111111111111111111111111111111111111111111
111111111111111111112222222222222222222222222222222222222222222222222222
222222222222222222222222222222222222222222222222222222222222222222222222
222222222222222222222222222222222222222222222222222222222222222222222222
222222222222222222222222222222222222222222222222222222222222222222222222
222222222222222222222222222222222222222222222222222222222222222222222222
2222222222222222222222222222222222222
# atoms in fragment 1/2:   380   377
 fragment masses (1/2) :     3629.28     3634.33
CMA distance (Bohr)    :   2.623
constraining FC (au)   :  0.0500

           -------------------------------------------------
          |                 G F N 2 - x T B                 |
           -------------------------------------------------

        Reference                      10.1021/acs.jctc.8b01176
      * Hamiltonian:
        H0-scaling (s, p, d)           1.850000    2.230000    2.230000
        zeta-weighting                 0.500000
      * Dispersion:
        s8                             2.700000
        a1                             0.520000
        a2                             5.000000
        s9                             5.000000
      * Repulsion:
        kExp                           1.500000    1.000000
        rExp                           1.000000
      * Coulomb:
        alpha                          2.000000
        third order                    shell-resolved
        anisotropic                    true
        a3                             3.000000
        a5                             4.000000
        cn-shift                       1.200000
        cn-exp                         4.000000
        max-rad                        5.000000

      * Solvation model:               ALPB
        Solvent                        water
        Parameter file                 internal GFN2-xTB/ALPB
        Dielectric constant                8.0200E+01
        Reference state                gsolv [1 M gas/solution]
        Free energy shift                  1.0808E-03 Eh       6.7819E-01 kcal/mol
        Temperature                        2.9815E+02 K
        Density                            1.0000E+00 kg/L
        Solvent mass                       1.8000E+01 g/mol
        Interaction kernel             P16
        Born radius scaling (c1)           1.4744E+00
        Born radii integrator          GBOBC
        Born offset                        0.0000E+00 a0       0.0000E+00 AA
        H-bond correction              true
        Ion screening                  false
        Surface tension                    1.0000E-05 Eh       1.5569E+01 dyn/cm
        Grid points                               230 per atom

          ...................................................
          :                      SETUP                      :
          :.................................................:
          :  # basis functions                2347          :
          :  # atomic orbitals                2325          :
          :  # shells                         1265          :
          :  # electrons                      2606          :
          :  max. iterations                   250          :
          :  Hamiltonian                  GFN2-xTB          :
          :  restarted?                      false          :
          :  GBSA solvation                   true          :
          :  PC potential                    false          :
          :  electronic temp.          300.0000000     K    :
          :  accuracy                    1.0000000          :
          :  -> integral cutoff          0.2500000E+02      :
          :  -> integral neglect         0.1000000E-07      :
          :  -> SCF convergence          0.1000000E-05 Eh   :
          :  -> wf. convergence          0.1000000E-03 e    :
          :  Broyden damping             0.4000000          :
          ...................................................

 iter      E             dE          RMSdq      gap      omega  full diag
   1  -1536.6306865 -0.153663E+04  0.668E+00    0.00       0.0  T
   2  -1539.2924222 -0.266174E+01  0.440E+00    0.03       1.0  T
   3  -1542.7087934 -0.341637E+01  0.285E+00    0.01       1.0  T
   4  -1540.9439994  0.176479E+01  0.246E+00    0.01       1.0  T
   5  -1541.2043043 -0.260305E+00  0.226E+00    0.01       1.0  T
   6  -1541.9105585 -0.706254E+00  0.190E+00    0.02       1.0  T
   7  -1541.4552118  0.455347E+00  0.210E+00    0.01       1.0  T
   8  -1541.6025641 -0.147352E+00  0.197E+00    0.07       1.0  T
   9  -1543.6909579 -0.208839E+01  0.127E+00    0.01       1.0  T
  10  -1544.0759687 -0.385011E+00  0.103E+00    0.00       1.0  T
  11  -1543.7596414  0.316327E+00  0.114E+00    0.01       1.0  T
  12  -1543.9010299 -0.141388E+00  0.113E+00    0.00       1.0  T
  13  -1543.9699417 -0.689119E-01  0.111E+00    0.00       1.0  T
  14  -1543.4937862  0.476156E+00  0.124E+00    0.01       1.0  T
  15  -1543.9109308 -0.417145E+00  0.110E+00    0.00       1.0  T
  16  -1544.2934661 -0.382535E+00  0.939E-01    0.00       1.0  T
  17  -1544.3522880 -0.588219E-01  0.897E-01    0.01       1.0  T
  18  -1544.3533513 -0.106326E-02  0.868E-01    0.00       1.0  T
  19  -1544.0769970  0.276354E+00  0.990E-01    0.00       1.0  T
  20  -1543.7940676  0.282929E+00  0.109E+00    0.00       1.0  T
  21  -1544.1493429 -0.355275E+00  0.907E-01    0.00       1.0  T
  22  -1544.6931135 -0.543771E+00  0.645E-01    0.01       1.0  T
  23  -1544.8690430 -0.175930E+00  0.533E-01    0.00       1.0  T
  24  -1544.8128440  0.561990E-01  0.552E-01    0.00       1.0  T
  25  -1544.9195365 -0.106693E+00  0.503E-01    0.00       1.0  T
  26  -1545.0194303 -0.998938E-01  0.393E-01    0.00       1.0  T
  27  -1544.8904138  0.129016E+00  0.477E-01    0.00       1.0  T
  28  -1545.0472519 -0.156838E+00  0.353E-01    0.00       1.0  T
  29  -1545.0065663  0.406856E-01  0.348E-01    0.00       1.0  T
  30  -1545.0490452 -0.424789E-01  0.342E-01    0.00       1.0  T
  31  -1545.0961351 -0.470899E-01  0.293E-01    0.00       1.0  T
  32  -1545.1287342 -0.325991E-01  0.232E-01    0.00       1.0  T
  33  -1545.1133997  0.153345E-01  0.239E-01    0.00       1.0  T
  34  -1545.1520241 -0.386244E-01  0.175E-01    0.00       1.0  T
  35  -1545.1479409  0.408316E-02  0.178E-01    0.00       1.0  T
  36  -1545.1555811 -0.764016E-02  0.161E-01    0.00       1.0  T
  37  -1545.1533586  0.222249E-02  0.162E-01    0.00       1.0  T
  38  -1545.1470501  0.630850E-02  0.189E-01    0.00       1.0  T
  39  -1545.1706794 -0.236293E-01  0.115E-01    0.00       1.0  T
  40  -1545.1715440 -0.864658E-03  0.117E-01    0.00       1.0  T
  41  -1545.1667909  0.475317E-02  0.142E-01    0.00       1.0  T
  42  -1545.1756682 -0.887734E-02  0.950E-02    0.00       1.0  T
  43  -1545.1744450  0.122317E-02  0.993E-02    0.00       1.0  T
  44  -1545.1746178 -0.172716E-03  0.101E-01    0.00       1.0  T
  45  -1545.1819050 -0.728728E-02  0.621E-02    0.00       1.0  T
  46  -1545.1816414  0.263627E-03  0.641E-02    0.00       1.0  T
  47  -1545.1823940 -0.752609E-03  0.563E-02    0.00       1.0  T
  48  -1545.1838214 -0.142738E-02  0.466E-02    0.00       1.0  T
  49  -1545.1837147  0.106702E-03  0.467E-02    0.00       1.0  T
  50  -1545.1845766 -0.861913E-03  0.379E-02    0.00       1.0  T
  51  -1545.1848743 -0.297742E-03  0.326E-02    0.00       1.0  T
  52  -1545.1849050 -0.307000E-04  0.325E-02    0.00       1.0  T
  53  -1545.1855017 -0.596683E-03  0.243E-02    0.00       1.0  T
  54  -1545.1855386 -0.368265E-04  0.232E-02    0.00       1.0  T
  55  -1545.1859126 -0.374017E-03  0.143E-02    0.00       1.0  T
  56  -1545.1858648  0.477968E-04  0.153E-02    0.00       1.0  T
  57  -1545.1859182 -0.534366E-04  0.136E-02    0.00       1.0  T
  58  -1545.1858706  0.475622E-04  0.149E-02    0.00       1.0  T
  59  -1545.1858531  0.175131E-04  0.151E-02    0.00       1.0  T
  60  -1545.1859429 -0.897814E-04  0.127E-02    0.00       1.0  T
  61  -1545.1860554 -0.112519E-03  0.811E-03    0.00       1.0  T
  62  -1545.1860390  0.164703E-04  0.915E-03    0.00       1.0  T
  63  -1545.1860501 -0.111723E-04  0.821E-03    0.00       1.0  T
  64  -1545.1860560 -0.583906E-05  0.766E-03    0.00       1.0  T
  65  -1545.1860424  0.135376E-04  0.866E-03    0.00       1.0  T
  66  -1545.1860936 -0.511593E-04  0.543E-03    0.00       1.0  T
  67  -1545.1861124 -0.187659E-04  0.328E-03    0.00       1.1  T
  68  -1545.1861172 -0.485481E-05  0.262E-03    0.00       1.4  T
  69  -1545.1861171  0.986136E-07  0.248E-03    0.00       1.5  T
  70  -1545.1861184 -0.132238E-05  0.216E-03    0.00       1.7  T
  71  -1545.1861199 -0.147527E-05  0.184E-03    0.00       2.0  T
  72  -1545.1861182  0.172787E-05  0.224E-03    0.00       1.6  T
  73  -1545.1861214 -0.318169E-05  0.157E-03    0.00       2.3  T
  74  -1545.1861226 -0.120496E-05  0.108E-03    0.00       3.4  T
  75  -1545.1861218  0.757014E-06  0.143E-03    0.00       2.5  T
  76  -1545.1861233 -0.146824E-05  0.831E-04    0.00       4.4  T
  77  -1545.1861214  0.189281E-05  0.159E-03    0.00       2.3  T
  78  -1545.1861221 -0.697806E-06  0.137E-03    0.00       2.6  T
  79  -1545.1861230 -0.888826E-06  0.995E-04    0.00       3.7  T
  80  -1545.1861227  0.235172E-06  0.108E-03    0.00       3.4  T
  81  -1545.1861237 -0.966692E-06  0.478E-04    0.00       7.6  T

   *** convergence criteria satisfied after 81 iterations ***

         #    Occupation            Energy/Eh            Energy/eV
      -------------------------------------------------------------
         1        2.0000           -0.7617151             -20.7273
       ...           ...                  ...                  ...
      1297        1.5083           -0.4275933             -11.6354
      1298        1.4852           -0.4275351             -11.6338
      1299        1.4658           -0.4274874             -11.6325
      1300        1.4132           -0.4273634             -11.6292
      1301        1.3795           -0.4272875             -11.6271
      1302        1.3627           -0.4272505             -11.6261
      1303        1.3091           -0.4271356             -11.6230 (HOMO)
      1304        1.3046           -0.4271263             -11.6227 (LUMO)
      1305        1.2786           -0.4270721             -11.6212
      1306        1.2234           -0.4269602             -11.6182
      1307        1.1684           -0.4268516             -11.6152
      1308        1.1514           -0.4268184             -11.6143
       ...           ...                  ...                  ...
      2325                          1.2889891              35.0752
      -------------------------------------------------------------
                  HL-Gap            0.0000093 Eh            0.0003 eV
             Fermi-level           -0.4265285 Eh          -11.6064 eV

 SCC (total)                   0 d,  0 h,  1 min,  1.499 sec
 SCC setup                      ...        0 min,  0.077 sec (  0.125%)
 Dispersion                     ...        0 min,  0.307 sec (  0.500%)
 classical contributions        ...        0 min,  0.004 sec (  0.006%)
 integral evaluation            ...        0 min,  0.628 sec (  1.020%)
 iterations                     ...        0 min, 58.312 sec ( 94.818%)
 molecular gradient             ...        0 min,  2.066 sec (  3.360%)
 printout                       ...        0 min,  0.105 sec (  0.170%)

         :::::::::::::::::::::::::::::::::::::::::::::::::::::
         ::                     SUMMARY                     ::
         :::::::::::::::::::::::::::::::::::::::::::::::::::::
         :: total energy           -1530.503943665151 Eh    ::
         :: total w/o Gsasa/hb     -1530.454547325202 Eh    ::
         :: gradient norm              0.621806601277 Eh/a0 ::
         :: HOMO-LUMO gap              0.000253514997 eV    ::
         ::.................................................::
         :: SCC energy             -1545.186123709724 Eh    ::
         :: -> isotropic ES            8.269206621877 Eh    ::
         :: -> anisotropic ES         -1.268720466233 Eh    ::
         :: -> anisotropic XC          0.294428339689 Eh    ::
         :: -> dispersion             -1.280963652753 Eh    ::
         :: -> Gsolv                  -3.476957678252 Eh    ::
         ::    -> Gelec               -3.427561338303 Eh    ::
         ::    -> Gsasa                0.092077851213 Eh    ::
         ::    -> Ghb                 -0.142554950860 Eh    ::
         ::    -> Gshift               0.001080759698 Eh    ::
         :: repulsion energy          14.565495018541 Eh    ::
         :: add. restraining           0.000000000000 Eh    ::
         :: total charge               0.000000000000 e     ::
         :::::::::::::::::::::::::::::::::::::::::::::::::::::

           -------------------------------------------------
          |                Property Printout                |
           -------------------------------------------------

    * Orbital Energies and Occupations

         #    Occupation            Energy/Eh            Energy/eV
      -------------------------------------------------------------
         1        2.0000           -0.7617151             -20.7273
       ...           ...                  ...                  ...
      1291        1.6264           -0.4279260             -11.6445
      1292        1.6111           -0.4278788             -11.6432
      1293        1.5798           -0.4277867             -11.6407
      1294        1.5736           -0.4277690             -11.6402
      1295        1.5622           -0.4277372             -11.6393
      1296        1.5573           -0.4277234             -11.6389
      1297        1.5083           -0.4275933             -11.6354
      1298        1.4852           -0.4275351             -11.6338
      1299        1.4658           -0.4274874             -11.6325
      1300        1.4132           -0.4273634             -11.6292
      1301        1.3795           -0.4272875             -11.6271
      1302        1.3627           -0.4272505             -11.6261
      1303        1.3091           -0.4271356             -11.6230 (HOMO)
      1304        1.3046           -0.4271263             -11.6227 (LUMO)
      1305        1.2786           -0.4270721             -11.6212
      1306        1.2234           -0.4269602             -11.6182
      1307        1.1684           -0.4268516             -11.6152
      1308        1.1514           -0.4268184             -11.6143
      1309        1.0525           -0.4266284             -11.6091
      1310        0.9919           -0.4265131             -11.6060
      1311        0.9337           -0.4264023             -11.6030
      1312        0.9119           -0.4263606             -11.6019
      1313        0.8992           -0.4263362             -11.6012
      1314        0.7010           -0.4259425             -11.5905
       ...           ...                  ...                  ...
      2325                          1.2889891              35.0752
      -------------------------------------------------------------
                  HL-Gap            0.0000093 Eh            0.0003 eV
             Fermi-level           -0.4265285 Eh          -11.6064 eV

 * generalized Born model for continuum solvation

     #   Z     Born rad/Å   SASA/Å²    H-bond
     1   8 O        2.068    16.462    -0.002
     2   6 C        2.336     1.688    -0.000
     3   6 C        2.516     0.229    -0.000
     4   8 O        2.349    11.023    -0.001
     5   6 C        2.602     0.249    -0.000
     6   8 O        2.345     3.984    -0.000
     7   6 C        2.614     0.014    -0.000
     8   6 C        2.702     0.058    -0.000
     9   7 N        2.660     0.479    -0.000
    10   6 C        2.681     4.394    -0.000
    11   8 O        2.199     9.590    -0.001
    12   7 N        2.516     2.267    -0.000
    13   6 C        2.666     3.818    -0.000
    14   7 N        2.219     3.814    -0.000
    15   6 C        2.582     7.150    -0.001
    16   6 C        2.635     2.942    -0.000
    17   1 H        1.827    21.380    -0.036
    18   1 H        1.833    19.717    -0.033
    19   1 H        1.911    17.503    -0.029
    20   1 H        1.964     9.543    -0.016
    21   1 H        2.025     5.492    -0.009
    22   1 H        2.073     0.000    -0.000
    23   1 H        2.012     4.831    -0.008
    24   1 H        1.939     1.331    -0.002
    25   1 H        1.866    19.320    -0.032
    26   1 H        1.924    19.818    -0.033
    27   1 H        1.998     6.471    -0.011
    28  15 P        2.763    10.388    -0.002
    29   8 O        2.066    27.621    -0.003
    30   8 O        2.084    24.730    -0.003
    31   8 O        2.319     0.827    -0.000
    32   6 C        2.447     0.392    -0.000
    33   6 C        2.550     0.148    -0.000
    34   8 O        2.407     4.915    -0.001
    35   6 C        2.626     0.177    -0.000
    36   8 O        2.363     4.026    -0.000
    37   6 C        2.620     0.053    -0.000
    38   6 C        2.745     0.091    -0.000
    39   7 N        2.846     0.000    -0.000
    40   6 C        2.708     1.896    -0.000
    41   7 N        2.497     9.067    -0.001
    42   6 C        3.075     0.003    -0.000
    43   6 C        2.752     0.001    -0.000
    44   8 O        2.221     6.239    -0.001
    45   7 N        2.642     0.000     0.000
    46   6 C        2.796     0.014    -0.000
    47   7 N        2.282     0.968    -0.000
    48   7 N        2.592     2.613    -0.000
    49   6 C        3.183     0.060    -0.000
    50   1 H        1.899    11.267    -0.019
    51   1 H        1.881    14.986    -0.025
    52   1 H        1.930    16.495    -0.028
    53   1 H        1.977     9.538    -0.016
    54   1 H        2.018     8.563    -0.014
    55   1 H        2.067     0.050    -0.000
    56   1 H        2.063     4.296    -0.007
    57   1 H        1.984     8.219    -0.014
    58   1 H        2.307     0.000     0.000
    59   1 H        1.991     0.991    -0.002
    60   1 H        1.902    19.424    -0.033
    61  15 P        2.777     9.896    -0.002
    62   8 O        2.070    27.778    -0.003
    63   8 O        2.098    23.225    -0.003
    64   8 O        2.329     0.696    -0.000
    65   6 C        2.455     0.405    -0.000
    66   6 C        2.558     0.134    -0.000
    67   8 O        2.420     3.935    -0.000
    68   6 C        2.629     0.120    -0.000
    69   8 O        2.362     3.825    -0.000
    70   6 C        2.627     0.032    -0.000
    71   6 C        2.757     0.092    -0.000
    72   7 N        2.882     0.000    -0.000
    73   6 C        2.731     0.286    -0.000
    74   7 N        2.529     7.176    -0.000
    75   6 C        3.214     0.006    -0.000
    76   6 C        2.892     0.000     0.000
    77   7 N        2.297     0.420    -0.000
    78   7 N        2.619     0.009    -0.000
    79   6 C        2.717     0.191    -0.000
    80   7 N        2.553     3.838    -0.000
    81   6 C        3.245     0.012    -0.000
    82   1 H        1.903    10.499    -0.018
    83   1 H        1.889    14.386    -0.024
    84   1 H        1.935    16.508    -0.028
    85   1 H        1.982     8.761    -0.015
    86   1 H        2.034     3.710    -0.006
    87   1 H        2.067     0.025    -0.000
    88   1 H        2.067     5.455    -0.009
    89   1 H        1.997     5.279    -0.009
    90   1 H        1.974     1.223    -0.002
    91   1 H        1.926    14.852    -0.025
    92   1 H        2.011     7.879    -0.013
    93  15 P        2.772    10.541    -0.002
    94   8 O        2.068    27.949    -0.003
    95   8 O        2.091    24.846    -0.003
    96   8 O        2.318     1.670    -0.000
    97   6 C        2.456     0.397    -0.000
    98   6 C        2.572     0.108    -0.000
    99   8 O        2.458     1.621    -0.000
   100   6 C        2.637     0.027    -0.000
   101   8 O        2.365     3.881    -0.000
   102   6 C        2.629     0.001    -0.000
   103   6 C        2.758     0.031    -0.000
   104   7 N        2.749     0.000     0.000
   105   6 C        2.745     0.000     0.000
   106   8 O        2.210     5.929    -0.001
   107   7 N        2.553     0.000     0.000
   108   6 C        2.709     0.000    -0.000
   109   8 O        2.202     6.784    -0.001
   110   6 C        2.770     0.000     0.000
   111   6 C        2.428     2.143    -0.000
   112   6 C        2.800     0.000    -0.000
   113   1 H        1.914    10.260    -0.017
   114   1 H        1.884    15.436    -0.026
   115   1 H        1.950    15.447    -0.026
   116   1 H        1.991     8.018    -0.013
   117   1 H        2.044     1.897    -0.003
   118   1 H        2.065     0.000     0.000
   119   1 H        2.036     6.488    -0.011
   120   1 H        2.267     0.010    -0.000
   121   1 H        1.889    12.519    -0.021
   122   1 H        1.902    10.794    -0.018
   123   1 H        1.874    15.994    -0.027
   124   1 H        2.062     2.446    -0.004
   125  15 P        2.775    10.364    -0.002
   126   8 O        2.071    27.704    -0.003
   127   8 O        2.091    23.935    -0.003
   128   8 O        2.332     0.486    -0.000
   129   6 C        2.460     0.387    -0.000
   130   6 C        2.564     0.151    -0.000
   131   8 O        2.423     3.850    -0.000
   132   6 C        2.631     0.259    -0.000
   133   8 O        2.372     3.540    -0.000
   134   6 C        2.620     0.078    -0.000
   135   6 C        2.753     0.066    -0.000
   136   7 N        2.716     0.000     0.000
   137   6 C        2.723     0.002    -0.000
   138   8 O        2.219     4.370    -0.000
   139   7 N        2.531     0.000     0.000
   140   6 C        2.687     0.002    -0.000
   141   8 O        2.197     5.093    -0.001
   142   6 C        2.742     0.000    -0.000
   143   6 C        2.419     2.249    -0.000
   144   6 C        2.773     0.003    -0.000
   145   1 H        1.910    10.165    -0.017
   146   1 H        1.891    14.187    -0.024
   147   1 H        1.939    16.308    -0.027
   148   1 H        1.974    10.580    -0.018
   149   1 H        2.019     6.373    -0.011
   150   1 H        2.045     0.013    -0.000
   151   1 H        2.056     2.457    -0.004
   152   1 H        2.264     0.000     0.000
   153   1 H        1.899     7.744    -0.013
   154   1 H        1.871    17.450    -0.029
   155   1 H        1.882    13.762    -0.023
   156   1 H        2.052     1.900    -0.003
   157  15 P        2.782     9.425    -0.002
   158   8 O        2.072    27.935    -0.003
   159   8 O        2.103    21.486    -0.002
   160   8 O        2.330     0.490    -0.000
   161   6 C        2.461     0.413    -0.000
   162   6 C        2.567     0.140    -0.000
   163   8 O        2.426     3.556    -0.000
   164   6 C        2.632     0.274    -0.000
   165   8 O        2.375     3.648    -0.000
   166   6 C        2.623     0.111    -0.000
   167   6 C        2.761     0.031    -0.000
   168   7 N        2.729     0.000     0.000
   169   6 C        2.739     0.000     0.000
   170   8 O        2.232     3.770    -0.000
   171   7 N        2.548     0.000     0.000
   172   6 C        2.697     0.000     0.000
   173   8 O        2.200     5.456    -0.001
   174   6 C        2.750     0.000     0.000
   175   6 C        2.421     2.166    -0.000
   176   6 C        2.779     0.000    -0.000
   177   1 H        1.909    10.060    -0.017
   178   1 H        1.891    14.200    -0.024
   179   1 H        1.941    16.691    -0.028
   180   1 H        1.972    10.818    -0.018
   181   1 H        2.020     6.341    -0.011
   182   1 H        2.043     0.047    -0.000
   183   1 H        2.064     1.991    -0.003
   184   1 H        2.281     0.000     0.000
   185   1 H        1.873    16.577    -0.028
   186   1 H        1.883    12.823    -0.022
   187   1 H        1.899     8.146    -0.014
   188   1 H        2.052     1.692    -0.003
   189  15 P        2.784     9.509    -0.002
   190   8 O        2.073    27.847    -0.003
   191   8 O        2.103    22.265    -0.002
   192   8 O        2.334     0.405    -0.000
   193   6 C        2.465     0.408    -0.000
   194   6 C        2.572     0.169    -0.000
   195   8 O        2.433     3.223    -0.000
   196   6 C        2.633     0.276    -0.000
   197   8 O        2.374     3.590    -0.000
   198   6 C        2.617     0.243    -0.000
   199   6 C        2.764     0.019    -0.000
   200   7 N        2.740     0.000     0.000
   201   6 C        2.757     0.000     0.000
   202   8 O        2.246     3.471    -0.000
   203   7 N        2.568     0.000     0.000
   204   6 C        2.717     0.000     0.000
   205   8 O        2.207     5.275    -0.001
   206   6 C        2.772     0.000     0.000
   207   6 C        2.432     2.096    -0.000
   208   6 C        2.796     0.004    -0.000
   209   1 H        1.912    10.189    -0.017
   210   1 H        1.894    14.099    -0.024
   211   1 H        1.945    17.146    -0.029
   212   1 H        1.976    10.224    -0.017
   213   1 H        2.018     6.394    -0.011
   214   1 H        2.024     0.981    -0.002
   215   1 H        2.063     2.352    -0.004
   216   1 H        2.303     0.000     0.000
   217   1 H        1.912     6.498    -0.011
   218   1 H        1.878    15.380    -0.026
   219   1 H        1.889    12.396    -0.021
   220   1 H        2.059     1.693    -0.003
   221  15 P        2.778     9.695    -0.002
   222   8 O        2.074    27.494    -0.003
   223   8 O        2.095    24.382    -0.003
   224   8 O        2.322     0.831    -0.000
   225   6 C        2.460     0.414    -0.000
   226   6 C        2.570     0.103    -0.000
   227   8 O        2.432     2.727    -0.000
   228   6 C        2.632     0.128    -0.000
   229   8 O        2.368     3.867    -0.000
   230   6 C        2.610     0.147    -0.000
   231   6 C        2.750     0.043    -0.000
   232   7 N        2.724     0.000     0.000
   233   6 C        2.737     0.000     0.000
   234   8 O        2.225     5.140    -0.001
   235   7 N        2.555     0.000     0.000
   236   6 C        2.715     0.000    -0.000
   237   8 O        2.208     5.683    -0.001
   238   6 C        2.776     0.000    -0.000
   239   6 C        2.444     2.140    -0.000
   240   6 C        2.787     0.039    -0.000
   241   1 H        1.910    10.880    -0.018
   242   1 H        1.892    14.523    -0.024
   243   1 H        1.948    15.868    -0.027
   244   1 H        1.982     8.974    -0.015
   245   1 H        2.013     6.947    -0.012
   246   1 H        2.031     0.458    -0.001
   247   1 H        2.049     3.735    -0.006
   248   1 H        2.292     0.000     0.000
   249   1 H        1.878    15.796    -0.027
   250   1 H        1.897    11.775    -0.020
   251   1 H        1.946     3.312    -0.006
   252   1 H        2.052     2.661    -0.004
   253  15 P        2.775    10.118    -0.002
   254   8 O        2.071    27.596    -0.003
   255   8 O        2.092    24.932    -0.003
   256   8 O        2.321     0.748    -0.000
   257   6 C        2.457     0.423    -0.000
   258   6 C        2.564     0.122    -0.000
   259   8 O        2.420     3.328    -0.000
   260   6 C        2.626     0.169    -0.000
   261   8 O        2.365     3.516    -0.000
   262   6 C        2.600     0.258    -0.000
   263   6 C        2.746     0.078    -0.000
   264   7 N        2.713     0.000     0.000
   265   6 C        2.743     0.002    -0.000
   266   8 O        2.226     5.886    -0.001
   267   7 N        2.565     0.000     0.000
   268   6 C        2.704     0.158    -0.000
   269   8 O        2.202     6.971    -0.001
   270   6 C        2.744     0.619    -0.000
   271   6 C        2.420     2.749    -0.000
   272   6 C        2.761     1.652    -0.000
   273   1 H        1.908    10.027    -0.017
   274   1 H        1.891    14.449    -0.024
   275   1 H        1.944    16.118    -0.027
   276   1 H        1.976     9.446    -0.016
   277   1 H        2.002     9.565    -0.016
   278   1 H        2.015     1.980    -0.003
   279   1 H        2.054     3.117    -0.005
   280   1 H        2.309     0.000     0.000
   281   1 H        1.911     5.029    -0.008
   282   1 H        1.868    20.770    -0.035
   283   1 H        1.879    14.915    -0.025
   284   1 H        2.036     3.416    -0.006
   285  15 P        2.771     9.938    -0.002
   286   8 O        2.070    27.709    -0.003
   287   8 O        2.092    24.390    -0.003
   288   8 O        2.306     1.807    -0.000
   289   6 C        2.448     0.403    -0.000
   290   6 C        2.568     0.125    -0.000
   291   8 O        2.440     1.528    -0.000
   292   6 C        2.633     0.011    -0.000
   293   8 O        2.359     3.895    -0.000
   294   6 C        2.618    -0.000     0.000
   295   6 C        2.747     0.040    -0.000
   296   7 N        2.858     0.000    -0.000
   297   6 C        2.714     2.899    -0.000
   298   7 N        2.514    11.039    -0.001
   299   6 C        3.102     0.123    -0.000
   300   6 C        2.767     0.056    -0.000
   301   8 O        2.209     8.586    -0.001
   302   7 N        2.720     0.000     0.000
   303   6 C        2.904     0.000    -0.000
   304   7 N        2.351     0.299    -0.000
   305   7 N        2.661     1.466    -0.000
   306   6 C        3.244     0.000     0.000
   307   1 H        1.905    11.652    -0.020
   308   1 H        1.884    14.926    -0.025
   309   1 H        1.956    15.003    -0.025
   310   1 H        1.991     7.955    -0.013
   311   1 H        2.018     6.165    -0.010
   312   1 H        2.068     0.001    -0.000
   313   1 H        2.052     8.252    -0.014
   314   1 H        1.985     8.864    -0.015
   315   1 H        2.372     0.000     0.000
   316   1 H        2.048     0.118    -0.000
   317   1 H        1.945    13.903    -0.023
   318  15 P        2.767    10.654    -0.002
   319   8 O        2.069    27.699    -0.003
   320   8 O        2.082    26.248    -0.003
   321   8 O        2.318     1.719    -0.000
   322   6 C        2.454     0.390    -0.000
   323   6 C        2.569     0.124    -0.000
   324   8 O        2.443     2.397    -0.000
   325   6 C        2.633     0.027    -0.000
   326   8 O        2.358     3.767    -0.000
   327   6 C        2.620     0.002    -0.000
   328   6 C        2.751     0.012    -0.000
   329   7 N        2.878     0.000     0.000
   330   6 C        2.726     1.234    -0.000
   331   7 N        2.522     9.485    -0.001
   332   6 C        3.122     0.000    -0.000
   333   6 C        2.759     0.002    -0.000
   334   8 O        2.206     8.728    -0.001
   335   7 N        2.666     0.000    -0.000
   336   6 C        2.823     0.000    -0.000
   337   7 N        2.297     0.307    -0.000
   338   7 N        2.625     1.988    -0.000
   339   6 C        3.252     0.000    -0.000
   340   1 H        1.910    11.222    -0.019
   341   1 H        1.886    14.705    -0.025
   342   1 H        1.953    15.052    -0.025
   343   1 H        1.992     7.514    -0.013
   344   1 H        2.024     5.417    -0.009
   345   1 H        2.071     0.000     0.000
   346   1 H        2.052     7.666    -0.013
   347   1 H        1.992     8.145    -0.014
   348   1 H        2.336     0.000    -0.000
   349   1 H        2.011     0.319    -0.001
   350   1 H        1.911    15.134    -0.025
   351  15 P        2.763    10.664    -0.002
   352   8 O        2.066    27.802    -0.003
   353   8 O        2.082    26.077    -0.003
   354   8 O        2.309     1.400    -0.000
   355   6 C        2.441     0.417    -0.000
   356   6 C        2.535     0.133    -0.000
   357   8 O        2.430     1.745    -0.000
   358   6 C        2.480     0.529    -0.000
   359   8 O        2.044    29.202    -0.003
   360   6 C        2.496     1.163    -0.000
   361   6 C        2.682     0.005    -0.000
   362   7 N        2.667     0.063    -0.000
   363   6 C        2.676     3.553    -0.000
   364   8 O        2.183     8.702    -0.001
   365   7 N        2.519     2.602    -0.000
   366   6 C        2.709     3.710    -0.000
   367   7 N        2.228     3.795    -0.000
   368   6 C        2.659     4.485    -0.000
   369   6 C        2.689     2.279    -0.000
   370   1 H        1.904    11.274    -0.019
   371   1 H        1.875    14.913    -0.025
   372   1 H        1.933    15.691    -0.026
   373   1 H        1.930    13.190    -0.022
   374   1 H        1.949    15.211    -0.026
   375   1 H        1.907    16.978    -0.029
   376   1 H        1.993     8.434    -0.014
   377   1 H        1.924     5.024    -0.008
   378   1 H        1.876    19.200    -0.032
   379   1 H        1.972    12.890    -0.022
   380   1 H        2.024     4.795    -0.008
   381   8 O        2.036    19.417    -0.002
   382   6 C        2.326     1.687    -0.000
   383   6 C        2.509     0.206    -0.000
   384   8 O        2.347    10.833    -0.001
   385   6 C        2.594     0.297    -0.000
   386   8 O        2.346     4.207    -0.000
   387   6 C        2.586     0.282    -0.000
   388   6 C        2.702     0.080    -0.000
   389   7 N        2.756     0.416    -0.000
   390   6 C        2.613     6.103    -0.001
   391   7 N        2.408    16.123    -0.001
   392   6 C        2.936     3.215    -0.000
   393   6 C        2.650     4.318    -0.000
   394   8 O        2.155    13.584    -0.002
   395   7 N        2.548     2.047    -0.000
   396   6 C        2.714     4.284    -0.000
   397   7 N        2.229     3.931    -0.000
   398   7 N        2.548     5.400    -0.000
   399   6 C        3.074     3.322    -0.000
   400   1 H        1.822    21.499    -0.036
   401   1 H        1.830    19.786    -0.033
   402   1 H        1.910    17.493    -0.029
   403   1 H        1.952    10.504    -0.018
   404   1 H        1.997     8.573    -0.014
   405   1 H        2.020     1.311    -0.002
   406   1 H        2.051     3.328    -0.006
   407   1 H        1.929    11.513    -0.019
   408   1 H        2.224     1.253    -0.002
   409   1 H        1.935     3.770    -0.006
   410   1 H        1.875    20.144    -0.034
   411  15 P        2.761    10.550    -0.002
   412   8 O        2.065    27.925    -0.003
   413   8 O        2.083    25.131    -0.003
   414   8 O        2.309     1.547    -0.000
   415   6 C        2.448     0.407    -0.000
   416   6 C        2.562     0.135    -0.000
   417   8 O        2.448     0.800    -0.000
   418   6 C        2.625     0.047    -0.000
   419   8 O        2.357     3.862    -0.000
   420   6 C        2.603     0.078    -0.000
   421   6 C        2.748     0.002    -0.000
   422   7 N        2.750     0.000     0.000
   423   6 C        2.788     0.000     0.000
   424   8 O        2.248     3.758    -0.000
   425   7 N        2.640     0.000    -0.000
   426   6 C        2.800     0.000    -0.000
   427   7 N        2.272     0.382    -0.000
   428   6 C        2.695     0.947    -0.000
   429   6 C        2.726     0.634    -0.000
   430   1 H        1.907    10.205    -0.017
   431   1 H        1.882    15.085    -0.025
   432   1 H        1.948    14.955    -0.025
   433   1 H        1.984     7.723    -0.013
   434   1 H        2.007     8.086    -0.014
   435   1 H        2.043     0.051    -0.000
   436   1 H        2.038     4.125    -0.007
   437   1 H        1.968     1.312    -0.002
   438   1 H        1.893    17.576    -0.030
   439   1 H        1.974    14.322    -0.024
   440   1 H        2.020     5.668    -0.010
   441  15 P        2.766    10.625    -0.002
   442   8 O        2.068    27.724    -0.003
   443   8 O        2.084    25.999    -0.003
   444   8 O        2.313     1.494    -0.000
   445   6 C        2.451     0.434    -0.000
   446   6 C        2.564     0.118    -0.000
   447   8 O        2.430     1.561    -0.000
   448   6 C        2.631     0.047    -0.000
   449   8 O        2.364     4.397    -0.000
   450   6 C        2.613     0.035    -0.000
   451   6 C        2.745     0.008    -0.000
   452   7 N        2.726     0.000    -0.000
   453   6 C        2.786     0.000     0.000
   454   8 O        2.285     2.542    -0.000
   455   7 N        2.634     0.000     0.000
   456   6 C        2.777     0.131    -0.000
   457   7 N        2.274     0.555    -0.000
   458   6 C        2.671     3.067    -0.000
   459   6 C        2.700     1.525    -0.000
   460   1 H        1.908    10.165    -0.017
   461   1 H        1.884    15.003    -0.025
   462   1 H        1.949    14.803    -0.025
   463   1 H        1.984     8.351    -0.014
   464   1 H        2.012     8.053    -0.014
   465   1 H        2.056     0.003    -0.000
   466   1 H        2.042     3.279    -0.006
   467   1 H        1.968     1.639    -0.003
   468   1 H        1.900    16.580    -0.028
   469   1 H        1.967    15.373    -0.026
   470   1 H        2.008     7.001    -0.012
   471  15 P        2.775     9.928    -0.002
   472   8 O        2.070    27.916    -0.003
   473   8 O        2.090    25.298    -0.003
   474   8 O        2.333     0.651    -0.000
   475   6 C        2.465     0.427    -0.000
   476   6 C        2.564     0.148    -0.000
   477   8 O        2.420     2.903    -0.000
   478   6 C        2.630     0.182    -0.000
   479   8 O        2.366     3.551    -0.000
   480   6 C        2.615     0.129    -0.000
   481   6 C        2.757     0.004    -0.000
   482   7 N        2.879     0.000    -0.000
   483   6 C        2.712     2.469    -0.000
   484   7 N        2.520     8.694    -0.001
   485   6 C        3.252     0.000     0.000
   486   6 C        2.971     0.000     0.000
   487   7 N        2.321     0.187    -0.000
   488   7 N        2.744     0.000     0.000
   489   6 C        2.845     0.115    -0.000
   490   7 N        2.625     2.383    -0.000
   491   6 C        3.310     0.000     0.000
   492   1 H        1.918     7.526    -0.013
   493   1 H        1.897    14.195    -0.024
   494   1 H        1.942    16.228    -0.027
   495   1 H        1.987     7.935    -0.013
   496   1 H        2.015     9.197    -0.015
   497   1 H        2.048     0.227    -0.000
   498   1 H        2.074     3.829    -0.006
   499   1 H        1.984     7.499    -0.013
   500   1 H        1.989     0.835    -0.001
   501   1 H        1.936    12.913    -0.022
   502   1 H        2.079     6.602    -0.011
   503  15 P        2.772    10.340    -0.002
   504   8 O        2.069    27.882    -0.003
   505   8 O        2.090    25.228    -0.003
   506   8 O        2.316     1.507    -0.000
   507   6 C        2.456     0.395    -0.000
   508   6 C        2.568     0.109    -0.000
   509   8 O        2.444     2.993    -0.000
   510   6 C        2.632     0.070    -0.000
   511   8 O        2.365     3.734    -0.000
   512   6 C        2.621     0.026    -0.000
   513   6 C        2.767     0.078    -0.000
   514   7 N        2.908     0.000     0.000
   515   6 C        2.747     2.432    -0.000
   516   7 N        2.562     8.507    -0.001
   517   6 C        3.321     0.000     0.000
   518   6 C        2.991     0.000     0.000
   519   7 N        2.333     0.102    -0.000
   520   7 N        2.700     0.000     0.000
   521   6 C        2.776     0.146    -0.000
   522   7 N        2.586     3.651    -0.000
   523   6 C        3.329     0.000    -0.000
   524   1 H        1.912    10.554    -0.018
   525   1 H        1.884    15.488    -0.026
   526   1 H        1.947    15.391    -0.026
   527   1 H        1.986     8.294    -0.014
   528   1 H        2.015     8.728    -0.015
   529   1 H        2.066     0.005    -0.000
   530   1 H        2.071     6.418    -0.011
   531   1 H        1.997     8.119    -0.014
   532   1 H        1.988     1.078    -0.002
   533   1 H        1.944    13.341    -0.022
   534   1 H        2.044     6.606    -0.011
   535  15 P        2.773    10.474    -0.002
   536   8 O        2.070    27.928    -0.003
   537   8 O        2.091    25.060    -0.003
   538   8 O        2.322     1.253    -0.000
   539   6 C        2.458     0.394    -0.000
   540   6 C        2.566     0.123    -0.000
   541   8 O        2.442     3.369    -0.000
   542   6 C        2.631     0.138    -0.000
   543   8 O        2.369     3.671    -0.000
   544   6 C        2.614     0.119    -0.000
   545   6 C        2.763     0.133    -0.000
   546   7 N        2.881     0.000    -0.000
   547   6 C        2.733     3.013    -0.000
   548   7 N        2.543     8.963    -0.001
   549   6 C        3.257     0.003    -0.000
   550   6 C        2.948     0.000    -0.000
   551   7 N        2.317     0.136    -0.000
   552   7 N        2.692     0.000     0.000
   553   6 C        2.781     0.054    -0.000
   554   7 N        2.579     3.292    -0.000
   555   6 C        3.276     0.001    -0.000
   556   1 H        1.912    10.182    -0.017
   557   1 H        1.886    15.075    -0.025
   558   1 H        1.944    16.160    -0.027
   559   1 H        1.981     9.208    -0.015
   560   1 H        2.007    10.520    -0.018
   561   1 H        2.055     0.062    -0.000
   562   1 H        2.074     5.361    -0.009
   563   1 H        1.999     6.898    -0.012
   564   1 H        1.982     1.170    -0.002
   565   1 H        1.936    14.114    -0.024
   566   1 H        2.063     4.788    -0.008
   567  15 P        2.779     9.348    -0.002
   568   8 O        2.073    27.475    -0.003
   569   8 O        2.096    23.740    -0.003
   570   8 O        2.335     0.202    -0.000
   571   6 C        2.464     0.391    -0.000
   572   6 C        2.566     0.179    -0.000
   573   8 O        2.426     5.339    -0.001
   574   6 C        2.633     0.221    -0.000
   575   8 O        2.372     3.667    -0.000
   576   6 C        2.619     0.206    -0.000
   577   6 C        2.767     0.083    -0.000
   578   7 N        2.881     0.000    -0.000
   579   6 C        2.724     2.565    -0.000
   580   7 N        2.530     8.769    -0.001
   581   6 C        3.246     0.000    -0.000
   582   6 C        2.940     0.000     0.000
   583   7 N        2.312     0.196    -0.000
   584   7 N        2.680     0.000     0.000
   585   6 C        2.773     0.087    -0.000
   586   7 N        2.574     3.536    -0.000
   587   6 C        3.272     0.002    -0.000
   588   1 H        1.909    10.141    -0.017
   589   1 H        1.896    13.910    -0.023
   590   1 H        1.940    16.883    -0.028
   591   1 H        1.979     9.762    -0.016
   592   1 H        2.016     9.462    -0.016
   593   1 H        2.047     0.278    -0.000
   594   1 H        2.080     3.524    -0.006
   595   1 H        1.992     6.688    -0.011
   596   1 H        1.978     1.352    -0.002
   597   1 H        1.934    14.695    -0.025
   598   1 H        2.064     4.559    -0.008
   599  15 P        2.780     9.786    -0.002
   600   8 O        2.072    27.776    -0.003
   601   8 O        2.097    23.828    -0.003
   602   8 O        2.333     0.374    -0.000
   603   6 C        2.465     0.386    -0.000
   604   6 C        2.568     0.187    -0.000
   605   8 O        2.431     4.922    -0.001
   606   6 C        2.634     0.238    -0.000
   607   8 O        2.377     3.245    -0.000
   608   6 C        2.614     0.317    -0.000
   609   6 C        2.767     0.134    -0.000
   610   7 N        2.871     0.000    -0.000
   611   6 C        2.719     3.100    -0.000
   612   7 N        2.525     8.963    -0.001
   613   6 C        3.224     0.000    -0.000
   614   6 C        2.921     0.000    -0.000
   615   7 N        2.305     0.173    -0.000
   616   7 N        2.662     0.000     0.000
   617   6 C        2.760     0.115    -0.000
   618   7 N        2.567     4.135    -0.000
   619   6 C        3.254     0.015    -0.000
   620   1 H        1.913    10.332    -0.017
   621   1 H        1.894    14.271    -0.024
   622   1 H        1.942    16.715    -0.028
   623   1 H        1.978    10.374    -0.017
   624   1 H        2.011     9.777    -0.016
   625   1 H        2.040     1.037    -0.002
   626   1 H        2.083     3.408    -0.006
   627   1 H        1.988     7.118    -0.012
   628   1 H        1.976     1.028    -0.002
   629   1 H        1.930    14.985    -0.025
   630   1 H        2.048     5.486    -0.009
   631  15 P        2.784     9.028    -0.002
   632   8 O        2.074    27.737    -0.003
   633   8 O        2.104    22.223    -0.002
   634   8 O        2.336     0.309    -0.000
   635   6 C        2.463     0.393    -0.000
   636   6 C        2.563     0.177    -0.000
   637   8 O        2.415     6.699    -0.001
   638   6 C        2.632     0.263    -0.000
   639   8 O        2.368     4.143    -0.000
   640   6 C        2.624     0.103    -0.000
   641   6 C        2.756     0.112    -0.000
   642   7 N        2.866     0.001    -0.000
   643   6 C        2.723     0.216    -0.000
   644   7 N        2.525     7.258    -0.001
   645   6 C        3.204     0.004    -0.000
   646   6 C        2.899     0.000    -0.000
   647   7 N        2.306     0.226    -0.000
   648   7 N        2.629     0.004    -0.000
   649   6 C        2.711     0.232    -0.000
   650   7 N        2.530     5.185    -0.000
   651   6 C        3.217     0.036    -0.000
   652   1 H        1.908    10.834    -0.018
   653   1 H        1.895    14.096    -0.024
   654   1 H        1.937    16.988    -0.029
   655   1 H        1.979     9.409    -0.016
   656   1 H        2.030     4.756    -0.008
   657   1 H        2.048     0.120    -0.000
   658   1 H        2.069     3.688    -0.006
   659   1 H        1.994     4.547    -0.008
   660   1 H        1.980     1.549    -0.003
   661   1 H        1.931    14.731    -0.025
   662   1 H        2.018     6.698    -0.011
   663  15 P        2.775    10.444    -0.002
   664   8 O        2.070    28.088    -0.003
   665   8 O        2.092    24.940    -0.003
   666   8 O        2.328     0.723    -0.000
   667   6 C        2.464     0.398    -0.000
   668   6 C        2.569     0.180    -0.000
   669   8 O        2.435     3.179    -0.000
   670   6 C        2.631     0.224    -0.000
   671   8 O        2.371     3.374    -0.000
   672   6 C        2.609     0.217    -0.000
   673   6 C        2.752     0.106    -0.000
   674   7 N        2.719     0.000    -0.000
   675   6 C        2.716     0.037    -0.000
   676   8 O        2.197     7.672    -0.001
   677   7 N        2.526     0.000    -0.000
   678   6 C        2.688     0.000    -0.000
   679   8 O        2.190     8.580    -0.001
   680   6 C        2.747     0.063    -0.000
   681   6 C        2.419     2.664    -0.000
   682   6 C        2.774     0.466    -0.000
   683   1 H        1.920     8.919    -0.015
   684   1 H        1.891    14.843    -0.025
   685   1 H        1.944    16.363    -0.027
   686   1 H        1.980     9.284    -0.016
   687   1 H        2.008     8.310    -0.014
   688   1 H        2.038     0.561    -0.001
   689   1 H        2.050     3.293    -0.006
   690   1 H        2.245     0.003    -0.000
   691   1 H        1.899    10.221    -0.017
   692   1 H        1.868    16.709    -0.028
   693   1 H        1.882    13.777    -0.023
   694   1 H        2.048     2.783    -0.005
   695  15 P        2.779     8.732    -0.002
   696   8 O        2.074    27.170    -0.003
   697   8 O        2.098    23.384    -0.003
   698   8 O        2.334     0.150    -0.000
   699   6 C        2.458     0.408    -0.000
   700   6 C        2.555     0.166    -0.000
   701   8 O        2.392     7.557    -0.001
   702   6 C        2.622     0.240    -0.000
   703   8 O        2.360     3.332    -0.000
   704   6 C        2.608     0.139    -0.000
   705   6 C        2.729     0.025    -0.000
   706   7 N        2.701     0.009    -0.000
   707   6 C        2.727     0.397    -0.000
   708   8 O        2.224     7.143    -0.001
   709   7 N        2.584     0.000    -0.000
   710   6 C        2.752     0.046    -0.000
   711   7 N        2.273     0.214    -0.000
   712   6 C        2.665     3.035    -0.000
   713   6 C        2.697     1.372    -0.000
   714   1 H        1.898    10.812    -0.018
   715   1 H        1.897    13.379    -0.022
   716   1 H        1.932    17.114    -0.029
   717   1 H        1.979     8.935    -0.015
   718   1 H        2.014     8.596    -0.014
   719   1 H        2.037     0.127    -0.000
   720   1 H        2.032     3.594    -0.006
   721   1 H        1.976     0.439    -0.001
   722   1 H        1.908    10.114    -0.017
   723   1 H        1.976    12.130    -0.020
   724   1 H        2.027     3.255    -0.005
   725  15 P        2.767     9.334    -0.002
   726   8 O        2.068    27.428    -0.003
   727   8 O        2.091    23.374    -0.003
   728   8 O        2.322     0.151    -0.000
   729   6 C        2.442     0.411    -0.000
   730   6 C        2.520     0.194    -0.000
   731   8 O        2.378     6.199    -0.001
   732   6 C        2.478     0.714    -0.000
   733   8 O        2.047    28.406    -0.003
   734   6 C        2.509     0.976    -0.000
   735   6 C        2.665     0.184    -0.000
   736   7 N        2.727     0.579    -0.000
   737   6 C        2.638     5.271    -0.000
   738   7 N        2.437    13.485    -0.001
   739   6 C        2.931     3.273    -0.000
   740   6 C        2.653     4.314    -0.000
   741   8 O        2.170    13.736    -0.002
   742   7 N        2.541     2.104    -0.000
   743   6 C        2.694     4.215    -0.000
   744   7 N        2.239     3.804    -0.000
   745   7 N        2.495     7.230    -0.001
   746   6 C        3.010     3.176    -0.000
   747   1 H        1.891    12.222    -0.021
   748   1 H        1.879    14.012    -0.024
   749   1 H        1.910    17.933    -0.030
   750   1 H        1.915    15.306    -0.026
   751   1 H        1.975     7.408    -0.012
   752   1 H        1.904    19.772    -0.033
   753   1 H        1.995    11.936    -0.020
   754   1 H        1.954     9.270    -0.016
   755   1 H        2.234     1.103    -0.002
   756   1 H        1.962     1.457    -0.002
   757   1 H        1.876    21.917    -0.037

 total SASA / Å² :     4578.562

     #   Z          covCN         q      C6AA      α(0)
     1   8 O        0.848    -0.415    21.989     6.287
     2   6 C        3.674     0.072    19.606     6.345
     3   6 C        3.771     0.115    18.726     6.167
     4   8 O        1.699    -0.258    18.269     5.771
     5   6 C        3.919     0.123    18.517     6.116
     6   8 O        1.656    -0.336    19.649     5.984
     7   6 C        3.816    -0.092    22.249     6.713
     8   6 C        3.719     0.164    18.064     6.071
     9   7 N        2.744    -0.036    21.930     6.955
    10   6 C        2.734     0.328    21.427     7.579
    11   8 O        0.860    -0.479    23.320     6.475
    12   7 N        1.843    -0.268    27.822     7.817
    13   6 C        2.852     0.198    23.798     7.995
    14   7 N        2.648    -0.196    25.249     7.463
    15   6 C        2.908    -0.058    29.449     8.898
    16   6 C        2.858     0.059    26.663     8.463
    17   1 H        0.925     0.108     1.714     2.047
    18   1 H        0.925     0.159     1.330     1.803
    19   1 H        0.924     0.116     1.647     2.007
    20   1 H        0.924     0.078     2.003     2.213
    21   1 H        0.925     0.110     1.695     2.036
    22   1 H        0.925     0.093     1.853     2.129
    23   1 H        0.925     0.135     1.497     1.913
    24   1 H        0.860     0.289     0.747     1.354
    25   1 H        0.860     0.286     0.755     1.361
    26   1 H        0.926     0.162     1.314     1.793
    27   1 H        0.927     0.169     1.272     1.764
    28  15 P        3.630     0.523   139.057    21.183
    29   8 O        0.808    -0.563    25.256     6.737
    30   8 O        0.808    -0.542    24.762     6.670
    31   8 O        1.655    -0.328    19.499     5.961
    32   6 C        3.891     0.081    19.186     6.227
    33   6 C        3.767     0.093    19.077     6.225
    34   8 O        1.698    -0.304    19.057     5.894
    35   6 C        3.936     0.126    18.468     6.107
    36   8 O        1.656    -0.347    19.848     6.014
    37   6 C        3.815    -0.087    22.146     6.698
    38   6 C        3.712     0.160    18.135     6.085
    39   7 N        2.832    -0.012    21.482     6.884
    40   6 C        3.144     0.111    25.325     8.234
    41   7 N        1.880    -0.181    25.723     7.518
    42   6 C        3.211     0.031    26.673     8.407
    43   6 C        2.766     0.275    22.351     7.742
    44   8 O        0.858    -0.369    21.079     6.156
    45   7 N        2.710    -0.151    24.257     7.315
    46   6 C        2.841     0.235    23.086     7.874
    47   7 N        2.650    -0.191    25.140     7.447
    48   7 N        1.836    -0.220    26.636     7.648
    49   6 C        3.110     0.137    24.885     8.173
    50   1 H        0.924     0.080     1.974     2.197
    51   1 H        0.925     0.048     2.343     2.394
    52   1 H        0.924     0.088     1.903     2.157
    53   1 H        0.924     0.045     2.387     2.416
    54   1 H        0.925     0.093     1.854     2.129
    55   1 H        0.925     0.097     1.808     2.103
    56   1 H        0.924     0.115     1.651     2.009
    57   1 H        0.926     0.108     1.710     2.045
    58   1 H        0.861     0.282     0.770     1.374
    59   1 H        0.860     0.287     0.752     1.359
    60   1 H        0.860     0.302     0.708     1.318
    61  15 P        3.653     0.531   138.735    21.158
    62   8 O        0.808    -0.561    25.205     6.730
    63   8 O        0.808    -0.538    24.663     6.657
    64   8 O        1.656    -0.314    19.258     5.924
    65   6 C        3.900     0.078    19.227     6.233
    66   6 C        3.764     0.092    19.096     6.229
    67   8 O        1.698    -0.286    18.744     5.845
    68   6 C        3.914     0.123    18.526     6.117
    69   8 O        1.656    -0.349    19.881     6.019
    70   6 C        3.814    -0.093    22.266     6.716
    71   6 C        3.706     0.157    18.201     6.099
    72   7 N        2.835    -0.018    21.590     6.901
    73   6 C        3.159     0.100    25.486     8.253
    74   7 N        1.880    -0.190    25.929     7.548
    75   6 C        3.220     0.026    26.701     8.402
    76   6 C        2.881     0.172    24.307     8.083
    77   7 N        2.645    -0.181    24.927     7.415
    78   7 N        1.845    -0.190    25.949     7.550
    79   6 C        2.950     0.125    25.255     8.243
    80   7 N        1.829    -0.175    25.592     7.496
    81   6 C        3.187     0.129    24.743     8.116
    82   1 H        0.924     0.085     1.927     2.171
    83   1 H        0.925     0.052     2.293     2.368
    84   1 H        0.924     0.097     1.815     2.107
    85   1 H        0.924     0.051     2.308     2.376
    86   1 H        0.924     0.098     1.799     2.098
    87   1 H        0.926     0.112     1.680     2.027
    88   1 H        0.925     0.125     1.575     1.963
    89   1 H        0.926     0.094     1.838     2.120
    90   1 H        0.860     0.293     0.733     1.342
    91   1 H        0.860     0.287     0.754     1.360
    92   1 H        0.926     0.125     1.577     1.964
    93  15 P        3.635     0.547   138.152    21.114
    94   8 O        0.808    -0.552    24.993     6.701
    95   8 O        0.808    -0.530    24.485     6.633
    96   8 O        1.656    -0.311    19.206     5.916
    97   6 C        3.900     0.076    19.257     6.238
    98   6 C        3.794     0.095    19.025     6.211
    99   8 O        1.701    -0.284    18.720     5.842
   100   6 C        3.923     0.118    18.601     6.129
   101   8 O        1.656    -0.347    19.851     6.015
   102   6 C        3.815    -0.095    22.306     6.722
   103   6 C        3.744     0.152    18.198     6.085
   104   7 N        2.742     0.012    21.048     6.814
   105   6 C        2.708     0.317    21.618     7.611
   106   8 O        0.858    -0.422    22.134     6.308
   107   7 N        2.698    -0.145    24.144     7.298
   108   6 C        2.763     0.276    22.327     7.738
   109   8 O        0.858    -0.355    20.801     6.115
   110   6 C        2.955     0.022    27.503     8.602
   111   6 C        3.755    -0.161    23.687     6.940
   112   6 C        2.851     0.032    27.290     8.562
   113   1 H        0.924     0.078     1.995     2.209
   114   1 H        0.924     0.050     2.324     2.384
   115   1 H        0.924     0.083     1.945     2.181
   116   1 H        0.925     0.071     2.075     2.253
   117   1 H        0.924     0.120     1.617     1.988
   118   1 H        0.925     0.115     1.651     2.009
   119   1 H        0.925     0.130     1.533     1.936
   120   1 H        0.861     0.290     0.745     1.352
   121   1 H        0.924     0.094     1.841     2.122
   122   1 H        0.925     0.145     1.428     1.869
   123   1 H        0.924     0.190     1.151     1.678
   124   1 H        0.926     0.139     1.471     1.897
   125  15 P        3.639     0.562   137.611    21.072
   126   8 O        0.808    -0.558    25.131     6.720
   127   8 O        0.808    -0.520    24.251     6.601
   128   8 O        1.656    -0.304    19.074     5.896
   129   6 C        3.899     0.074    19.300     6.245
   130   6 C        3.774     0.092    19.093     6.226
   131   8 O        1.698    -0.272    18.506     5.808
   132   6 C        3.929     0.121    18.559     6.122
   133   8 O        1.656    -0.351    19.928     6.026
   134   6 C        3.817    -0.096    22.325     6.725
   135   6 C        3.732     0.156    18.163     6.083
   136   7 N        2.742     0.022    20.861     6.783
   137   6 C        2.709     0.319    21.575     7.603
   138   8 O        0.858    -0.426    22.209     6.318
   139   7 N        2.698    -0.135    23.933     7.266
   140   6 C        2.763     0.277    22.321     7.737
   141   8 O        0.858    -0.338    20.486     6.068
   142   6 C        2.954     0.031    27.301     8.570
   143   6 C        3.755    -0.170    23.861     6.965
   144   6 C        2.851     0.033    27.252     8.556
   145   1 H        0.924     0.086     1.919     2.166
   146   1 H        0.924     0.052     2.293     2.368
   147   1 H        0.924     0.094     1.844     2.123
   148   1 H        0.924     0.065     2.141     2.288
   149   1 H        0.925     0.128     1.552     1.948
   150   1 H        0.925     0.123     1.592     1.973
   151   1 H        0.925     0.125     1.570     1.959
   152   1 H        0.861     0.291     0.740     1.347
   153   1 H        0.924     0.162     1.314     1.793
   154   1 H        0.925     0.211     1.043     1.597
   155   1 H        0.924     0.107     1.724     2.053
   156   1 H        0.926     0.147     1.410     1.857
   157  15 P        3.640     0.573   137.215    21.042
   158   8 O        0.808    -0.561    25.214     6.731
   159   8 O        0.808    -0.507    23.959     6.561
   160   8 O        1.656    -0.298    18.982     5.881
   161   6 C        3.899     0.074    19.301     6.245
   162   6 C        3.774     0.092    19.090     6.226
   163   8 O        1.698    -0.266    18.411     5.793
   164   6 C        3.929     0.121    18.558     6.122
   165   8 O        1.656    -0.353    19.959     6.031
   166   6 C        3.818    -0.097    22.326     6.725
   167   6 C        3.733     0.158    18.135     6.078
   168   7 N        2.742     0.026    20.802     6.774
   169   6 C        2.708     0.321    21.552     7.599
   170   8 O        0.858    -0.435    22.402     6.346
   171   7 N        2.698    -0.134    23.906     7.262
   172   6 C        2.763     0.275    22.342     7.741
   173   8 O        0.858    -0.315    20.063     6.005
   174   6 C        2.955     0.038    27.158     8.548
   175   6 C        3.755    -0.177    24.023     6.989
   176   6 C        2.851     0.035    27.205     8.549
   177   1 H        0.924     0.085     1.932     2.173
   178   1 H        0.924     0.048     2.343     2.394
   179   1 H        0.924     0.088     1.900     2.156
   180   1 H        0.924     0.065     2.142     2.289
   181   1 H        0.925     0.133     1.509     1.921
   182   1 H        0.925     0.118     1.629     1.996
   183   1 H        0.925     0.115     1.651     2.009
   184   1 H        0.861     0.291     0.742     1.349
   185   1 H        0.925     0.238     0.924     1.503
   186   1 H        0.924     0.119     1.619     1.990
   187   1 H        0.924     0.189     1.157     1.682
   188   1 H        0.926     0.152     1.376     1.834
   189  15 P        3.638     0.557   137.786    21.086
   190   8 O        0.808    -0.571    25.441     6.761
   191   8 O        0.808    -0.508    23.999     6.567
   192   8 O        1.656    -0.305    19.095     5.899
   193   6 C        3.899     0.077    19.244     6.236
   194   6 C        3.779     0.092    19.075     6.222
   195   8 O        1.698    -0.277    18.594     5.822
   196   6 C        3.932     0.124    18.512     6.114
   197   8 O        1.656    -0.351    19.916     6.024
   198   6 C        3.821    -0.090    22.199     6.705
   199   6 C        3.737     0.162    18.065     6.065
   200   7 N        2.742     0.018    20.940     6.796
   201   6 C        2.708     0.321    21.546     7.598
   202   8 O        0.858    -0.450    22.703     6.388
   203   7 N        2.698    -0.136    23.957     7.269
   204   6 C        2.763     0.273    22.388     7.749
   205   8 O        0.858    -0.294    19.666     5.946
   206   6 C        2.955     0.035    27.213     8.556
   207   6 C        3.755    -0.180    24.085     6.998
   208   6 C        2.851     0.036    27.181     8.545
   209   1 H        0.924     0.084     1.941     2.178
   210   1 H        0.924     0.036     2.499     2.472
   211   1 H        0.924     0.072     2.066     2.248
   212   1 H        0.924     0.054     2.276     2.359
   213   1 H        0.925     0.126     1.562     1.954
   214   1 H        0.925     0.100     1.784     2.089
   215   1 H        0.925     0.098     1.800     2.098
   216   1 H        0.861     0.293     0.735     1.343
   217   1 H        0.925     0.196     1.118     1.654
   218   1 H        0.924     0.238     0.924     1.503
   219   1 H        0.924     0.115     1.656     2.012
   220   1 H        0.926     0.145     1.424     1.866
   221  15 P        3.639     0.516   139.294    21.201
   222   8 O        0.808    -0.582    25.704     6.796
   223   8 O        0.808    -0.529    24.457     6.629
   224   8 O        1.656    -0.314    19.252     5.923
   225   6 C        3.898     0.085    19.116     6.215
   226   6 C        3.785     0.096    19.015     6.211
   227   8 O        1.699    -0.296    18.931     5.874
   228   6 C        3.926     0.126    18.483     6.110
   229   8 O        1.656    -0.354    19.980     6.034
   230   6 C        3.816    -0.085    22.116     6.693
   231   6 C        3.741     0.165    18.016     6.056
   232   7 N        2.742     0.004    21.187     6.836
   233   6 C        2.708     0.322    21.522     7.594
   234   8 O        0.858    -0.464    22.996     6.429
   235   7 N        2.698    -0.136    23.956     7.269
   236   6 C        2.763     0.271    22.415     7.753
   237   8 O        0.858    -0.288    19.561     5.930
   238   6 C        2.955     0.026    27.417     8.588
   239   6 C        3.755    -0.177    24.002     6.986
   240   6 C        2.851     0.037    27.163     8.542
   241   1 H        0.924     0.077     2.013     2.219
   242   1 H        0.924     0.026     2.642     2.542
   243   1 H        0.924     0.055     2.264     2.353
   244   1 H        0.924     0.050     2.318     2.381
   245   1 H        0.925     0.115     1.651     2.009
   246   1 H        0.925     0.089     1.887     2.148
   247   1 H        0.925     0.086     1.914     2.163
   248   1 H        0.861     0.296     0.725     1.334
   249   1 H        0.925     0.232     0.951     1.525
   250   1 H        0.924     0.102     1.770     2.080
   251   1 H        0.925     0.192     1.138     1.669
   252   1 H        0.926     0.127     1.555     1.950
   253  15 P        3.639     0.486   140.401    21.285
   254   8 O        0.808    -0.585    25.776     6.806
   255   8 O        0.808    -0.539    24.701     6.662
   256   8 O        1.656    -0.320    19.355     5.939
   257   6 C        3.899     0.088    19.067     6.207
   258   6 C        3.786     0.096    19.019     6.212
   259   8 O        1.698    -0.305    19.082     5.898
   260   6 C        3.931     0.129    18.425     6.100
   261   8 O        1.656    -0.350    19.906     6.023
   262   6 C        3.817    -0.078    21.981     6.673
   263   6 C        3.746     0.169    17.952     6.044
   264   7 N        2.742    -0.005    21.357     6.864
   265   6 C        2.708     0.323    21.502     7.590
   266   8 O        0.858    -0.459    22.902     6.416
   267   7 N        2.698    -0.141    24.058     7.285
   268   6 C        2.763     0.276    22.340     7.740
   269   8 O        0.858    -0.288    19.570     5.931
   270   6 C        2.955     0.029    27.357     8.579
   271   6 C        3.755    -0.170    23.865     6.966
   272   6 C        2.851     0.043    27.026     8.521
   273   1 H        0.924     0.074     2.042     2.235
   274   1 H        0.925     0.029     2.598     2.521
   275   1 H        0.924     0.059     2.216     2.328
   276   1 H        0.924     0.037     2.486     2.466
   277   1 H        0.925     0.099     1.791     2.093
   278   1 H        0.925     0.080     1.981     2.201
   279   1 H        0.925     0.085     1.930     2.172
   280   1 H        0.861     0.296     0.726     1.335
   281   1 H        0.924     0.188     1.161     1.685
   282   1 H        0.924     0.223     0.990     1.556
   283   1 H        0.924     0.090     1.875     2.142
   284   1 H        0.926     0.114     1.660     2.015
   285  15 P        3.635     0.467   141.145    21.341
   286   8 O        0.808    -0.582    25.720     6.798
   287   8 O        0.808    -0.550    24.939     6.694
   288   8 O        1.656    -0.324    19.430     5.951
   289   6 C        3.895     0.094    18.986     6.194
   290   6 C        3.800     0.101    18.916     6.192
   291   8 O        1.702    -0.313    19.223     5.920
   292   6 C        3.929     0.127    18.457     6.105
   293   8 O        1.656    -0.348    19.873     6.018
   294   6 C        3.818    -0.084    22.093     6.689
   295   6 C        3.736     0.164    18.038     6.061
   296   7 N        2.830    -0.023    21.687     6.916
   297   6 C        3.152     0.113    25.239     8.217
   298   7 N        1.879    -0.169    25.453     7.479
   299   6 C        3.214     0.034    26.575     8.388
   300   6 C        2.767     0.279    22.279     7.730
   301   8 O        0.858    -0.302    19.816     5.968
   302   7 N        2.712    -0.149    24.226     7.310
   303   6 C        2.843     0.231    23.161     7.887
   304   7 N        2.650    -0.191    25.159     7.449
   305   7 N        1.837    -0.245    27.245     7.735
   306   6 C        3.119     0.136    24.872     8.168
   307   1 H        0.924     0.063     2.163     2.300
   308   1 H        0.925     0.030     2.587     2.515
   309   1 H        0.924     0.057     2.238     2.340
   310   1 H        0.925     0.038     2.480     2.463
   311   1 H        0.925     0.080     1.977     2.199
   312   1 H        0.926     0.094     1.839     2.120
   313   1 H        0.924     0.103     1.756     2.072
   314   1 H        0.926     0.078     1.999     2.211
   315   1 H        0.861     0.307     0.693     1.304
   316   1 H        0.860     0.300     0.715     1.324
   317   1 H        0.860     0.267     0.820     1.419
   318  15 P        3.635     0.458   141.456    21.365
   319   8 O        0.808    -0.577    25.588     6.781
   320   8 O        0.808    -0.563    25.247     6.735
   321   8 O        1.656    -0.327    19.480     5.958
   322   6 C        3.889     0.089    19.054     6.205
   323   6 C        3.788     0.095    19.026     6.212
   324   8 O        1.699    -0.315    19.253     5.924
   325   6 C        3.934     0.127    18.458     6.105
   326   8 O        1.656    -0.345    19.811     6.009
   327   6 C        3.817    -0.089    22.180     6.703
   328   6 C        3.727     0.157    18.159     6.084
   329   7 N        2.831    -0.017    21.582     6.900
   330   6 C        3.145     0.112    25.285     8.227
   331   7 N        1.879    -0.193    26.020     7.562
   332   6 C        3.210     0.030    26.703     8.412
   333   6 C        2.766     0.276    22.334     7.740
   334   8 O        0.858    -0.334    20.407     6.057
   335   7 N        2.711    -0.133    23.879     7.258
   336   6 C        2.840     0.237    23.058     7.869
   337   7 N        2.649    -0.159    24.435     7.342
   338   7 N        1.836    -0.218    26.592     7.642
   339   6 C        3.112     0.128    25.048     8.199
   340   1 H        0.925     0.070     2.086     2.259
   341   1 H        0.924     0.037     2.490     2.468
   342   1 H        0.924     0.074     2.046     2.237
   343   1 H        0.925     0.035     2.512     2.479
   344   1 H        0.924     0.078     1.999     2.211
   345   1 H        0.926     0.107     1.721     2.052
   346   1 H        0.924     0.122     1.598     1.977
   347   1 H        0.926     0.076     2.024     2.225
   348   1 H        0.861     0.305     0.698     1.308
   349   1 H        0.860     0.305     0.700     1.310
   350   1 H        0.860     0.287     0.754     1.360
   351  15 P        3.643     0.484   140.501    21.293
   352   8 O        0.808    -0.573    25.490     6.768
   353   8 O        0.808    -0.569    25.391     6.755
   354   8 O        1.656    -0.318    19.326     5.934
   355   6 C        3.890     0.080    19.194     6.228
   356   6 C        3.807     0.103    18.878     6.185
   357   8 O        1.701    -0.294    18.894     5.869
   358   6 C        3.741     0.134    18.479     6.133
   359   8 O        0.848    -0.466    23.047     6.436
   360   6 C        3.817    -0.075    21.927     6.665
   361   6 C        3.752     0.160    18.073     6.063
   362   7 N        2.743    -0.018    21.597     6.902
   363   6 C        2.733     0.323    21.515     7.594
   364   8 O        0.860    -0.460    22.920     6.419
   365   7 N        1.843    -0.266    27.755     7.808
   366   6 C        2.852     0.187    23.998     8.029
   367   7 N        2.647    -0.193    25.191     7.454
   368   6 C        2.908    -0.067    29.667     8.931
   369   6 C        2.856     0.044    26.997     8.516
   370   1 H        0.924     0.085     1.933     2.174
   371   1 H        0.924     0.057     2.235     2.338
   372   1 H        0.924     0.094     1.840     2.121
   373   1 H        0.925     0.106     1.728     2.056
   374   1 H        0.924     0.097     1.809     2.103
   375   1 H        0.924     0.126     1.567     1.957
   376   1 H        0.925     0.142     1.448     1.882
   377   1 H        0.860     0.306     0.695     1.306
   378   1 H        0.860     0.272     0.804     1.405
   379   1 H        0.926     0.107     1.727     2.055
   380   1 H        0.926     0.093     1.845     2.124
   381   8 O        0.848    -0.411    21.912     6.276
   382   6 C        3.674     0.070    19.630     6.349
   383   6 C        3.771     0.110    18.815     6.181
   384   8 O        1.699    -0.242    18.013     5.730
   385   6 C        3.932     0.123    18.517     6.115
   386   8 O        1.656    -0.334    19.613     5.978
   387   6 C        3.818    -0.094    22.284     6.718
   388   6 C        3.715     0.159    18.151     6.087
   389   7 N        2.831     0.000    21.256     6.848
   390   6 C        3.149     0.115    25.224     8.216
   391   7 N        1.880    -0.152    25.087     7.425
   392   6 C        3.211     0.043    26.402     8.364
   393   6 C        2.767     0.285    22.165     7.710
[...]
                           498 H    0.943
   482   7 N    3.615 --   483 C    1.217   491 C    1.169   481 C    0.967
   483   6 C    3.892 --   484 N    1.578   482 N    1.217   499 H    0.951
   484   7 N    3.016 --   483 C    1.578   485 C    1.209
   485   6 C    3.854 --   491 C    1.268   484 N    1.209   486 C    1.158
   486   6 C    3.967 --   487 N    1.434   488 N    1.253   485 C    1.158
   487   7 N    3.380 --   486 C    1.434   501 H    0.868   500 H    0.845
   488   7 N    3.034 --   489 C    1.429   486 C    1.253
   489   6 C    3.938 --   488 N    1.429   490 N    1.421   502 H    0.952
   490   7 N    2.950 --   489 C    1.421   491 C    1.268
   491   6 C    3.900 --   490 N    1.268   485 C    1.268   482 N    1.169
   492   1 H    0.988 --   475 C    0.955
   493   1 H    0.996 --   475 C    0.968
   494   1 H    0.981 --   476 C    0.944
   495   1 H    0.996 --   478 C    0.961
   496   1 H    0.986 --   480 C    0.962
   497   1 H    0.993 --   480 C    0.960
   498   1 H    0.982 --   481 C    0.943
   499   1 H    0.986 --   483 C    0.951
   500   1 H    0.894 --   487 N    0.845
   501   1 H    0.884 --   487 N    0.868
   502   1 H    0.992 --   489 C    0.952
   503  15 P    5.713 --   505 O    1.724   504 O    1.687   479 O    1.133
                           506 O    1.111
   504   8 O    1.871 --   503 P    1.687
   505   8 O    1.908 --   503 P    1.724
   506   8 O    2.260 --   503 P    1.111   507 C    0.943
   507   6 C    3.932 --   508 C    0.988   525 H    0.971   524 H    0.962
                           506 O    0.943
   508   6 C    3.962 --   507 C    0.988   509 O    0.977   510 C    0.969
                           526 H    0.954
   509   8 O    2.065 --   508 C    0.977   513 C    0.957
   510   6 C    3.913 --   512 C    0.986   508 C    0.969   527 H    0.963
                           511 O    0.914
   511   8 O    2.258 --   535 P    1.129   510 C    0.914
   512   6 C    3.983 --   510 C    0.986   513 C    0.983   528 H    0.968
                           529 H    0.961
   513   6 C    3.932 --   512 C    0.983   514 N    0.971   509 O    0.957
                           530 H    0.952
   514   7 N    3.608 --   515 C    1.214   523 C    1.162   513 C    0.971
   515   6 C    3.896 --   516 N    1.580   514 N    1.214   531 H    0.953
   516   7 N    3.013 --   515 C    1.580   517 C    1.204
   517   6 C    3.848 --   523 C    1.266   516 N    1.204   518 C    1.158
   518   6 C    3.968 --   519 N    1.432   520 N    1.256   517 C    1.158
   519   7 N    3.374 --   518 C    1.432   533 H    0.874   532 H    0.829
   520   7 N    3.026 --   521 C    1.433   518 C    1.256
   521   6 C    3.928 --   520 N    1.433   522 N    1.411   534 H    0.949
   522   7 N    2.934 --   521 C    1.411   523 C    1.275
   523   6 C    3.896 --   522 N    1.275   517 C    1.266   514 N    1.162
   524   1 H    0.993 --   507 C    0.962
   525   1 H    0.998 --   507 C    0.971
   526   1 H    0.994 --   508 C    0.954
   527   1 H    0.997 --   510 C    0.963
   528   1 H    0.990 --   512 C    0.968
   529   1 H    0.994 --   512 C    0.961
   530   1 H    0.994 --   513 C    0.952
   531   1 H    0.990 --   515 C    0.953
   532   1 H    0.881 --   519 N    0.829
   533   1 H    0.891 --   519 N    0.874
   534   1 H    0.990 --   521 C    0.949
   535  15 P    5.743 --   537 O    1.739   536 O    1.704   511 O    1.129
                           538 O    1.114
   536   8 O    1.896 --   535 P    1.704
   537   8 O    1.931 --   535 P    1.739
   538   8 O    2.265 --   535 P    1.114   539 C    0.944
   539   6 C    3.935 --   540 C    0.989   557 H    0.971   556 H    0.964
                           538 O    0.944
   540   6 C    3.962 --   539 C    0.989   541 O    0.974   542 C    0.971
                           558 H    0.955
   541   8 O    2.061 --   540 C    0.974   545 C    0.956
   542   6 C    3.919 --   544 C    0.987   540 C    0.971   559 H    0.965
                           543 O    0.919
   543   8 O    2.256 --   567 P    1.122   542 C    0.919
   544   6 C    3.983 --   542 C    0.987   545 C    0.984   560 H    0.968
                           561 H    0.961
   545   6 C    3.931 --   544 C    0.984   546 N    0.972   541 O    0.956
                           562 H    0.952
   546   7 N    3.605 --   547 C    1.216   555 C    1.156   545 C    0.972
   547   6 C    3.905 --   548 N    1.583   546 N    1.216   563 H    0.955
   548   7 N    3.010 --   547 C    1.583   549 C    1.199
   549   6 C    3.844 --   555 C    1.272   548 N    1.199   550 C    1.155
   550   6 C    3.968 --   551 N    1.434   552 N    1.258   549 C    1.155
   551   7 N    3.380 --   550 C    1.434   565 H    0.883   564 H    0.834
   552   7 N    3.027 --   553 C    1.430   550 C    1.258
   553   6 C    3.923 --   552 N    1.430   554 N    1.411   566 H    0.947
   554   7 N    2.933 --   553 C    1.411   555 C    1.272
   555   6 C    3.893 --   554 N    1.272   549 C    1.272   546 N    1.156
   556   1 H    0.995 --   539 C    0.964
   557   1 H    0.999 --   539 C    0.971
   558   1 H    0.995 --   540 C    0.955
   559   1 H    0.998 --   542 C    0.965
   560   1 H    0.990 --   544 C    0.968
   561   1 H    0.994 --   544 C    0.961
   562   1 H    0.994 --   545 C    0.952
   563   1 H    0.993 --   547 C    0.955
   564   1 H    0.883 --   551 N    0.834
   565   1 H    0.900 --   551 N    0.883
   566   1 H    0.988 --   553 C    0.947
   567  15 P    5.760 --   569 O    1.746   568 O    1.717   543 O    1.122
                           570 O    1.119
   568   8 O    1.916 --   567 P    1.717
   569   8 O    1.943 --   567 P    1.746
   570   8 O    2.267 --   567 P    1.119   571 C    0.941
   571   6 C    3.932 --   572 C    0.987   589 H    0.970   588 H    0.964
                           570 O    0.941
   572   6 C    3.962 --   571 C    0.987   573 O    0.973   574 C    0.973
                           590 H    0.954
   573   8 O    2.066 --   572 C    0.973   577 C    0.959
   574   6 C    3.923 --   576 C    0.988   572 C    0.973   591 H    0.965
                           575 O    0.921
   575   8 O    2.256 --   599 P    1.120   574 C    0.921
   576   6 C    3.985 --   574 C    0.988   577 C    0.988   592 H    0.967
                           593 H    0.960
   577   6 C    3.931 --   576 C    0.988   578 N    0.967   573 O    0.959
                           594 H    0.951
   578   7 N    3.604 --   579 C    1.222   587 C    1.150   577 C    0.967
   579   6 C    3.916 --   580 N    1.583   578 N    1.222   595 H    0.956
   580   7 N    3.010 --   579 C    1.583   581 C    1.196
   581   6 C    3.847 --   587 C    1.274   580 N    1.196   582 C    1.158
   582   6 C    3.968 --   583 N    1.425   584 N    1.264   581 C    1.158
   583   7 N    3.391 --   582 C    1.425   597 H    0.894   596 H    0.837
   584   7 N    3.027 --   585 C    1.424   582 C    1.264
   585   6 C    3.914 --   584 N    1.424   586 N    1.413   598 H    0.939
   586   7 N    2.943 --   585 C    1.413   587 C    1.276
   587   6 C    3.894 --   586 N    1.276   581 C    1.274   578 N    1.150
   588   1 H    0.994 --   571 C    0.964
   589   1 H    0.999 --   571 C    0.970
   590   1 H    0.994 --   572 C    0.954
   591   1 H    0.998 --   574 C    0.965
   592   1 H    0.992 --   576 C    0.967
   593   1 H    0.994 --   576 C    0.960
   594   1 H    0.993 --   577 C    0.951
   595   1 H    0.995 --   579 C    0.956
   596   1 H    0.886 --   583 N    0.837
   597   1 H    0.911 --   583 N    0.894
   598   1 H    0.982 --   585 C    0.939
   599  15 P    5.763 --   601 O    1.745   600 O    1.717   602 O    1.124
                           575 O    1.120
   600   8 O    1.918 --   599 P    1.717
   601   8 O    1.944 --   599 P    1.745
   602   8 O    2.268 --   599 P    1.124   603 C    0.937
   603   6 C    3.929 --   604 C    0.989   621 H    0.970   620 H    0.963
                           602 O    0.937
   604   6 C    3.961 --   603 C    0.989   606 C    0.973   605 O    0.971
                           622 H    0.954
   605   8 O    2.063 --   604 C    0.971   609 C    0.959
   606   6 C    3.926 --   608 C    0.988   604 C    0.973   623 H    0.966
                           607 O    0.925
   607   8 O    2.253 --   631 P    1.112   606 C    0.925
   608   6 C    3.984 --   606 C    0.988   609 C    0.987   624 H    0.967
                           625 H    0.961
   609   6 C    3.930 --   608 C    0.987   610 N    0.968   605 O    0.959
                           626 H    0.950
   610   7 N    3.606 --   611 C    1.225   619 C    1.150   609 C    0.968
   611   6 C    3.921 --   612 N    1.584   610 N    1.225   627 H    0.956
   612   7 N    3.011 --   611 C    1.584   613 C    1.197
   613   6 C    3.852 --   619 C    1.279   612 N    1.197   614 C    1.157
   614   6 C    3.969 --   615 N    1.423   616 N    1.266   613 C    1.157
   615   7 N    3.401 --   614 C    1.423   629 H    0.900   628 H    0.840
   616   7 N    3.036 --   617 C    1.425   614 C    1.266
   617   6 C    3.914 --   616 N    1.425   618 N    1.414   630 H    0.939
   618   7 N    2.946 --   617 C    1.414   619 C    1.274
   619   6 C    3.898 --   613 C    1.279   618 N    1.274   610 N    1.150
   620   1 H    0.994 --   603 C    0.963
   621   1 H    0.998 --   603 C    0.970
   622   1 H    0.993 --   604 C    0.954
   623   1 H    0.998 --   606 C    0.966
   624   1 H    0.993 --   608 C    0.967
   625   1 H    0.992 --   608 C    0.961
   626   1 H    0.992 --   609 C    0.950
   627   1 H    0.995 --   611 C    0.956
   628   1 H    0.892 --   615 N    0.840
   629   1 H    0.917 --   615 N    0.900
   630   1 H    0.981 --   617 C    0.939
   631  15 P    5.745 --   633 O    1.740   632 O    1.708   634 O    1.129
                           607 O    1.112
   632   8 O    1.908 --   631 P    1.708
   633   8 O    1.936 --   631 P    1.740
   634   8 O    2.270 --   631 P    1.129   635 C    0.936
   635   6 C    3.925 --   636 C    0.986   653 H    0.969   652 H    0.963
                           634 O    0.936
   636   6 C    3.958 --   635 C    0.986   638 C    0.973   637 O    0.972
                           654 H    0.951
   637   8 O    2.070 --   636 C    0.972   641 C    0.964
   638   6 C    3.925 --   640 C    0.989   636 C    0.973   655 H    0.965
                           639 O    0.924
   639   8 O    2.258 --   663 P    1.120   638 C    0.924
   640   6 C    3.984 --   638 C    0.989   641 C    0.988   656 H    0.967
                           657 H    0.960
   641   6 C    3.927 --   640 C    0.988   637 O    0.964   642 N    0.962
                           658 H    0.946
   642   7 N    3.609 --   643 C    1.227   651 C    1.153   641 C    0.962
   643   6 C    3.930 --   644 N    1.585   642 N    1.227   659 H    0.957
   644   7 N    3.014 --   643 C    1.585   645 C    1.194
   645   6 C    3.863 --   651 C    1.285   644 N    1.194   646 C    1.160
   646   6 C    3.969 --   647 N    1.409   648 N    1.274   645 C    1.160
   647   7 N    3.413 --   646 C    1.409   661 H    0.907   660 H    0.850
   648   7 N    3.042 --   649 C    1.417   646 C    1.274
   649   6 C    3.913 --   650 N    1.423   648 N    1.417   662 H    0.937
   650   7 N    2.961 --   649 C    1.423   651 C    1.270
   651   6 C    3.906 --   645 C    1.285   650 N    1.270   642 N    1.153
   652   1 H    0.994 --   635 C    0.963
   653   1 H    0.998 --   635 C    0.969
   654   1 H    0.990 --   636 C    0.951
   655   1 H    0.998 --   638 C    0.965
   656   1 H    0.993 --   640 C    0.967
   657   1 H    0.992 --   640 C    0.960
   658   1 H    0.988 --   641 C    0.946
   659   1 H    0.995 --   643 C    0.957
   660   1 H    0.899 --   647 N    0.850
   661   1 H    0.924 --   647 N    0.907
   662   1 H    0.978 --   649 C    0.937
   663  15 P    5.742 --   665 O    1.730   664 O    1.713   666 O    1.123
                           639 O    1.120
   664   8 O    1.906 --   663 P    1.713
   665   8 O    1.921 --   663 P    1.730
   666   8 O    2.265 --   663 P    1.123   667 C    0.933
   667   6 C    3.922 --   668 C    0.990   684 H    0.969   683 H    0.960
                           666 O    0.933
   668   6 C    3.954 --   667 C    0.990   670 C    0.971   669 O    0.970
                           685 H    0.949
   669   8 O    2.056 --   668 C    0.970   673 C    0.959
   670   6 C    3.922 --   672 C    0.986   668 C    0.971   686 H    0.963
                           671 O    0.926
   671   8 O    2.258 --   695 P    1.118   670 C    0.926
   672   6 C    3.965 --   670 C    0.986   673 C    0.977   687 H    0.963
                           688 H    0.961
   673   6 C    3.919 --   672 C    0.977   674 N    0.969   669 O    0.959
                           689 H    0.942
   674   7 N    3.535 --   682 C    1.220   675 C    1.085   673 C    0.969
   675   6 C    3.952 --   676 O    1.634   677 N    1.162   674 N    1.085
   676   8 O    1.949 --   675 C    1.634   677 N    0.139
   677   7 N    3.511 --   675 C    1.162   678 C    1.143   690 H    0.824
                           679 O    0.148   676 O    0.139
   678   6 C    3.952 --   679 O    1.658   677 N    1.143   680 C    1.069
   679   8 O    1.995 --   678 C    1.658   677 N    0.148
   680   6 C    3.825 --   682 C    1.544   678 C    1.069   681 C    1.048
   681   6 C    3.922 --   680 C    1.048   693 H    0.981   691 H    0.926
                           692 H    0.920
   682   6 C    3.877 --   680 C    1.544   674 N    1.220   694 H    0.946
   683   1 H    0.993 --   667 C    0.960
   684   1 H    0.997 --   667 C    0.969
   685   1 H    0.987 --   668 C    0.949
   686   1 H    0.996 --   670 C    0.963
   687   1 H    0.991 --   672 C    0.963
   688   1 H    0.993 --   672 C    0.961
   689   1 H    0.985 --   673 C    0.942
   690   1 H    0.912 --   677 N    0.824
   691   1 H    0.954 --   681 C    0.926
   692   1 H    0.946 --   681 C    0.920
   693   1 H    0.993 --   681 C    0.981
   694   1 H    0.987 --   682 C    0.946
   695  15 P    5.731 --   697 O    1.728   696 O    1.705   698 O    1.123
                           671 O    1.118
   696   8 O    1.901 --   695 P    1.705
   697   8 O    1.919 --   695 P    1.728
   698   8 O    2.261 --   695 P    1.123   699 C    0.935
   699   6 C    3.907 --   700 C    0.977   715 H    0.967   714 H    0.960
                           698 O    0.935
   700   6 C    3.940 --   699 C    0.977   701 O    0.976   702 C    0.972
                           716 H    0.940
   701   8 O    2.062 --   700 C    0.976   705 C    0.963
   702   6 C    3.927 --   704 C    0.988   700 C    0.972   717 H    0.964
                           703 O    0.929
   703   8 O    2.252 --   725 P    1.113   702 C    0.929
   704   6 C    3.976 --   702 C    0.988   705 C    0.984   718 H    0.963
                           719 H    0.963
   705   6 C    3.912 --   704 C    0.984   701 O    0.963   706 N    0.959
                           720 H    0.936
   706   7 N    3.532 --   713 C    1.229   707 C    1.065   705 C    0.959
   707   6 C    3.938 --   708 O    1.553   709 N    1.232   706 N    1.065
   708   8 O    1.934 --   707 C    1.553   709 N    0.132
   709   7 N    3.006 --   710 C    1.327   707 C    1.232   708 O    0.132
                           711 N    0.106
   710   6 C    3.966 --   711 N    1.408   709 N    1.327   712 C    1.142
   711   7 N    3.422 --   710 C    1.408   722 H    0.914   721 H    0.853
                           709 N    0.106
   712   6 C    3.871 --   713 C    1.610   710 C    1.142   723 H    0.952
   713   6 C    3.935 --   712 C    1.610   706 N    1.229   724 H    0.946
   714   1 H    0.989 --   699 C    0.960
   715   1 H    0.996 --   699 C    0.967
   716   1 H    0.977 --   700 C    0.940
   717   1 H    0.997 --   702 C    0.964
   718   1 H    0.992 --   704 C    0.963
   719   1 H    0.994 --   704 C    0.963
   720   1 H    0.977 --   705 C    0.936
   721   1 H    0.909 --   711 N    0.853
   722   1 H    0.931 --   711 N    0.914
   723   1 H    0.982 --   712 C    0.952
   724   1 H    0.982 --   713 C    0.946
   725  15 P    5.722 --   727 O    1.723   726 O    1.709   728 O    1.122
                           703 O    1.113
   726   8 O    1.907 --   725 P    1.709
   727   8 O    1.918 --   725 P    1.723
   728   8 O    2.268 --   725 P    1.122   729 C    0.936
   729   6 C    3.894 --   730 C    0.964   748 H    0.964   747 H    0.950
                           728 O    0.936
   730   6 C    3.878 --   731 O    0.981   729 C    0.964   749 H    0.941
                           732 C    0.902
   731   8 O    2.105 --   730 C    0.981   735 C    0.960
   732   6 C    3.907 --   733 O    1.120   734 C    0.977   730 C    0.902
                           750 H    0.858
   733   8 O    1.306 --   732 C    1.120
   734   6 C    3.967 --   735 C    0.980   732 C    0.977   752 H    0.966
                           751 H    0.962
   735   6 C    3.900 --   734 C    0.980   736 N    0.962   731 O    0.960
                           753 H    0.920
   736   7 N    3.617 --   737 C    1.246   746 C    1.149   735 C    0.962
   737   6 C    3.847 --   738 N    1.534   736 N    1.246   754 H    0.952
   738   7 N    2.977 --   737 C    1.534   739 C    1.246
   739   6 C    3.789 --   746 C    1.257   738 N    1.246   740 C    1.098
   740   6 C    3.948 --   741 O    1.623   742 N    1.143   739 C    1.098
   741   8 O    1.965 --   740 C    1.623   742 N    0.144
   742   7 N    3.516 --   743 C    1.181   740 C    1.143   755 H    0.828
                           741 O    0.144
   743   6 C    3.952 --   744 N    1.415   745 N    1.286   742 N    1.181
   744   7 N    3.360 --   743 C    1.415   757 H    0.886   756 H    0.849
   745   7 N    2.837 --   746 C    1.320   743 C    1.286
   746   6 C    3.894 --   745 N    1.320   739 C    1.257   736 N    1.149
   747   1 H    0.981 --   729 C    0.950
   748   1 H    0.994 --   729 C    0.964
   749   1 H    0.982 --   730 C    0.941
   750   1 H    0.906 --   732 C    0.858
   751   1 H    0.991 --   734 C    0.962
   752   1 H    0.989 --   734 C    0.966
   753   1 H    0.967 --   735 C    0.920
   754   1 H    0.991 --   737 C    0.952
   755   1 H    0.918 --   742 N    0.828
   756   1 H    0.914 --   744 N    0.849
   757   1 H    0.904 --   744 N    0.886
 ---------------------------------------------------------------------------

Topologies differ in total number of bonds
Writing topology from bond orders to xtbtopo.mol

molecular dipole:
                 x           y           z       tot (Debye)
 q only:       48.140     -17.602      42.924
   full:       42.328     -16.197      37.670     149.790
molecular quadrupole (traceless):
                xx          xy          yy          xz          yz          zz
 q only:    -1288.258    -774.137    5553.948   -2973.219   -2202.609   -4265.690
  q+dip:    -1296.658    -759.391    5180.634   -2583.329   -1934.582   -3883.976
   full:    -1324.926    -762.453    5236.508   -2581.834   -1942.118   -3911.581


           -------------------------------------------------
          | TOTAL ENERGY            -1530.503943665151 Eh   |
          | GRADIENT NORM               0.621806601277 Eh/α |
          | HOMO-LUMO GAP               0.000253514997 eV   |
           -------------------------------------------------

------------------------------------------------------------------------
 * finished run on 2023/04/11 at 13:22:35.267     
------------------------------------------------------------------------
 total:
 * wall-time:     0 d,  0 h,  1 min,  2.900 sec
 *  cpu-time:     0 d,  0 h, 10 min, 16.394 sec
 * ratio c/w:     9.800 speedup
 SCF:
 * wall-time:     0 d,  0 h,  1 min,  1.538 sec
 *  cpu-time:     0 d,  0 h, 10 min,  8.667 sec
 * ratio c/w:     9.891 speedup

