      -----------------------------------------------------------      
     |                   =====================                   |     
     |                           x T B                           |     
     |                   =====================                   |     
     |                         S. Grimme                         |     
     |          Mulliken Center for Theoretical Chemistry        |     
     |                    University of Bonn                     |     
      -----------------------------------------------------------      

   * xtb version 6.5.1 (579679a) compiled by 'ehlert@majestix' on 2022-07-11

   xtb is free software: you can redistribute it and/or modify it under
   the terms of the GNU Lesser General Public License as published by
   the Free Software Foundation, either version 3 of the License, or
   (at your option) any later version.
   
   xtb is distributed in the hope that it will be useful,
   but WITHOUT ANY WARRANTY; without even the implied warranty of
   MERCHANTABILITY or FITNESS FOR A PARTICULAR PURPOSE.  See the
   GNU Lesser General Public License for more details.
   
   Cite this work as:
   * C. Bannwarth, E. Caldeweyher, S. Ehlert, A. Hansen, P. Pracht,
     J. Seibert, S. Spicher, S. Grimme, WIREs Comput. Mol. Sci., 2020, 11,
     e01493. DOI: 10.1002/wcms.1493
   
   for GFN2-xTB:
   * C. Bannwarth, S. Ehlert and S. Grimme., J. Chem. Theory Comput., 2019,
     15, 1652-1671. DOI: 10.1021/acs.jctc.8b01176
   for GFN1-xTB:
   * S. Grimme, C. Bannwarth, P. Shushkov, J. Chem. Theory Comput., 2017,
     13, 1989-2009. DOI: 10.1021/acs.jctc.7b00118
   for GFN0-xTB:
   * P. Pracht, E. Caldeweyher, S. Ehlert, S. Grimme, ChemRxiv, 2019, preprint.
     DOI: 10.26434/chemrxiv.8326202.v1
   for GFN-FF:
   * S. Spicher and S. Grimme, Angew. Chem. Int. Ed., 2020, 59, 15665-15673.
     DOI: 10.1002/anie.202004239
   
   for ALPB and GBSA implicit solvation:
   * S. Ehlert, M. Stahn, S. Spicher, S. Grimme, J. Chem. Theory Comput.,
     2021, 17, 4250-4261. DOI: 10.1021/acs.jctc.1c00471
   
   for DFT-D4:
   * E. Caldeweyher, C. Bannwarth and S. Grimme, J. Chem. Phys., 2017,
     147, 034112. DOI: 10.1063/1.4993215
   * E. Caldeweyher, S. Ehlert, A. Hansen, H. Neugebauer, S. Spicher,
     C. Bannwarth and S. Grimme, J. Chem. Phys., 2019, 150, 154122.
     DOI: 10.1063/1.5090222
   * E. Caldeweyher, J.-M. Mewes, S. Ehlert and S. Grimme, Phys. Chem. Chem. Phys.
     2020, 22, 8499-8512. DOI: 10.1039/D0CP00502A
   
   for sTDA-xTB:
   * S. Grimme and C. Bannwarth, J. Chem. Phys., 2016, 145, 054103.
     DOI: 10.1063/1.4959605
   
   in the mass-spec context:
   * V. Asgeirsson, C. Bauer and S. Grimme, Chem. Sci., 2017, 8, 4879.
     DOI: 10.1039/c7sc00601b
   * J. Koopman and S. Grimme, ACS Omega 2019, 4, 12, 15120-15133.
     DOI: 10.1021/acsomega.9b02011
   
   for metadynamics refer to:
   * S. Grimme, J. Chem. Theory Comput., 2019, 155, 2847-2862
     DOI: 10.1021/acs.jctc.9b00143
   
   for SPH calculations refer to:
   * S. Spicher and S. Grimme, J. Chem. Theory Comput., 2021, 17, 1701-1714
     DOI: 10.1021/acs.jctc.0c01306
   
   with help from (in alphabetical order)
   P. Atkinson, C. Bannwarth, F. Bohle, G. Brandenburg, E. Caldeweyher
   M. Checinski, S. Dohm, S. Ehlert, S. Ehrlich, I. Gerasimov, C. Hölzer
   A. Katbashev, J. Koopman, C. Lavigne, S. Lehtola, F. März, M. Müller,
   F. Musil, H. Neugebauer, J. Pisarek, C. Plett, P. Pracht, F. Pultar,
   J. Seibert, P. Shushkov, S. Spicher, M. Stahn, M. Steiner, T. Strunk,
   J. Stückrath, T. Rose, and J. Unsleber
   
 * started run on 2023/03/21 at 23:55:12.382     

           -------------------------------------------------
          |                Calculation Setup                |
           -------------------------------------------------

          program call               : /N/u/schandy/BigRed3/bin/xtb-6.5.1/bin/xtb 5ZLD_min.xyz --gbsa water
          hostname                   : nid00227
          coordinate file            : 5ZLD_min.xyz
          omp threads                :                    10

   ID    Z sym.   atoms
    1    8 O      1, 4, 6, 11, 30-32, 35, 37, 45, 63-65, 68, 70, 75, 93-95,
                  98, 100, 108, 126-128, 131, 133, 158-160, 163, 165,
                  190-192, 195, 197, 222-224, 227, 229, 234, 237, 254-256,
                  259, 261, 266, 269, 286-288, 291, 293, 298, 301, 318-320,
                  323, 325, 330, 348-350, 353, 355, 363, 381-383, 386, 388,
                  393, 411-413, 416, 418, 426, 444, 447, 449, 454, 473-475,
                  478, 480, 488, 506-508, 511, 513, 518, 536-538, 541, 543,
                  551, 569-571, 574, 576, 601-603, 606, 608, 633-635, 638,
                  640, 665-667, 670, 672, 677, 680, 697-699, 702, 704, 709,
                  712, 729-731, 734, 736, 741, 744, 761-763, 766, 768, 773,
                  791-793, 796, 798, 806, 824-826, 829, 831, 836, 854-856,
                  859, 861, 869
    2    6 C      2, 3, 5, 7, 8, 10, 13, 15, 16, 33, 34, 36, 38, 39, 41, 43,
                  44, 47, 50, 66, 67, 69, 71, 72, 74, 77, 79, 80, 96, 97, 99,
                  101, 102, 104, 106, 107, 110, 113, 129, 130, 132, 134, 135,
                  137, 139, 140, 143, 145, 161, 162, 164, 166, 167, 169, 171,
                  172, 175, 177, 193, 194, 196, 198, 199, 201, 203, 204, 207,
                  209, 225, 226, 228, 230, 231, 233, 236, 238-240, 257, 258,
                  260, 262, 263, 265, 268, 270-272, 289, 290, 292, 294, 295,
                  297, 300, 302-304, 321, 322, 324, 326, 327, 329, 332, 334,
                  335, 351, 352, 354, 356, 357, 359, 361, 362, 365, 368, 384,
                  385, 387, 389, 390, 392, 395, 397, 398, 414, 415, 417, 419,
                  420, 422, 424, 425, 428, 431, 445, 446, 448, 450, 451, 453,
                  456, 458, 459, 476, 477, 479, 481, 482, 484, 486, 487, 490,
                  493, 509, 510, 512, 514, 515, 517, 520, 522, 523, 539, 540,
                  542, 544, 545, 547, 549, 550, 553, 556, 572, 573, 575, 577,
                  578, 580, 582, 583, 586, 588, 604, 605, 607, 609, 610, 612,
                  614, 615, 618, 620, 636, 637, 639, 641, 642, 644, 646, 647,
                  650, 652, 668, 669, 671, 673, 674, 676, 679, 681-683, 700,
                  701, 703, 705, 706, 708, 711, 713-715, 732, 733, 735, 737,
                  738, 740, 743, 745-747, 764, 765, 767, 769, 770, 772, 775,
                  777, 778, 794, 795, 797, 799, 800, 802, 804, 805, 808, 811,
                  827, 828, 830, 832, 833, 835, 838, 840, 841, 857, 858, 860,
                  862, 863, 865, 867, 868, 871, 874
    3    7 N      9, 12, 14, 40, 42, 46, 48, 49, 73, 76, 78, 103, 105, 109,
                  111, 112, 136, 138, 141, 142, 144, 168, 170, 173, 174, 176,
                  200, 202, 205, 206, 208, 232, 235, 264, 267, 296, 299, 328,
                  331, 333, 358, 360, 364, 366, 367, 391, 394, 396, 421, 423,
                  427, 429, 430, 452, 455, 457, 483, 485, 489, 491, 492, 516,
                  519, 521, 546, 548, 552, 554, 555, 579, 581, 584, 585, 587,
                  611, 613, 616, 617, 619, 643, 645, 648, 649, 651, 675, 678,
                  707, 710, 739, 742, 771, 774, 776, 801, 803, 807, 809, 810,
                  834, 837, 839, 864, 866, 870, 872, 873
    4    1 H      17-28, 51-61, 81-91, 114-124, 146-156, 178-188, 210-220,
                  241-252, 273-284, 305-316, 336-346, 369-379, 399-409,
                  432-443, 460-471, 494-504, 524-534, 557-567, 589-599,
                  621-631, 653-663, 684-695, 716-727, 748-759, 779-789,
                  812-822, 842-852, 875-886
    5   15 P      29, 62, 92, 125, 157, 189, 221, 253, 285, 317, 347, 380,
                  410, 472, 505, 535, 568, 600, 632, 664, 696, 728, 760, 790,
                  823, 853

molecular fragmentation (1/2 indicates fragments):
111111111111111111111111111111111111111111111111111111111111111111111111
111111111111111111111111111111111111111111111111111111111111111111111111
111111111111111111111111111111111111111111111111111111111111111111111111
111111111111111111111111111111111111111111111111111111111111111111111111
111111111111111111111111111111111111111111111111111111111111111111111111
111111111111111111111111111111111111111111111111111111111111111111111111
111111111112222222222222222222222222222222222222222222222222222222222222
222222222222222222222222222222222222222222222222222222222222222222222222
222222222222222222222222222222222222222222222222222222222222222222222222
222222222222222222222222222222222222222222222222222222222222222222222222
222222222222222222222222222222222222222222222222222222222222222222222222
222222222222222222222222222222222222222222222222222222222222222222222222
2222222222222222222222
# atoms in fragment 1/2:   443   443
 fragment masses (1/2) :     4250.69     4250.69
CMA distance (Bohr)    :   4.332
constraining FC (au)   :  0.0500

           -------------------------------------------------
          |                 G F N 2 - x T B                 |
           -------------------------------------------------

        Reference                      10.1021/acs.jctc.8b01176
      * Hamiltonian:
        H0-scaling (s, p, d)           1.850000    2.230000    2.230000
        zeta-weighting                 0.500000
      * Dispersion:
        s8                             2.700000
        a1                             0.520000
        a2                             5.000000
        s9                             5.000000
      * Repulsion:
        kExp                           1.500000    1.000000
        rExp                           1.000000
      * Coulomb:
        alpha                          2.000000
        third order                    shell-resolved
        anisotropic                    true
        a3                             3.000000
        a5                             4.000000
        cn-shift                       1.200000
        cn-exp                         4.000000
        max-rad                        5.000000

      * Solvation model:               GBSA
        Solvent                        water
        Parameter file                 internal GFN2-xTB/GBSA
        Dielectric constant                8.0200E+01
        Reference state                gsolv [1 M gas/solution]
        Free energy shift                  1.8574E-03 Eh       1.1656E+00 kcal/mol
        Temperature                        2.9815E+02 K
        Density                            1.0000E+00 kg/L
        Solvent mass                       1.8000E+01 g/mol
        Interaction kernel             Still
        Born radius scaling (c1)           1.5524E+00
        Born radii integrator          GBOBC
        Born offset                        2.4628E-02 a0       4.6540E-02 AA
        H-bond correction              true
        Ion screening                  false
        Surface tension                    1.0000E-05 Eh       1.5569E+01 dyn/cm
        Grid points                               230 per atom
q/qsh data taken from xtbrestart
CAMM data taken from xtbrestart

          ...................................................
          :                      SETUP                      :
          :.................................................:
          :  # basis functions                2746          :
          :  # atomic orbitals                2720          :
          :  # shells                         1480          :
          :  # electrons                      3050          :
          :  max. iterations                   250          :
          :  Hamiltonian                  GFN2-xTB          :
          :  restarted?                       true          :
          :  GBSA solvation                   true          :
          :  PC potential                    false          :
          :  electronic temp.          300.0000000     K    :
          :  accuracy                    1.0000000          :
          :  -> integral cutoff          0.2500000E+02      :
          :  -> integral neglect         0.1000000E-07      :
          :  -> SCF convergence          0.1000000E-05 Eh   :
          :  -> wf. convergence          0.1000000E-03 e    :
          :  Broyden damping             0.4000000          :
          ...................................................

 iter      E             dE          RMSdq      gap      omega  full diag
   1  -1805.9215294 -0.180592E+04  0.143E+00    0.00       0.0  T
   2  -1803.2086299  0.271290E+01  0.182E+00    0.05       1.0  T
   3  -1803.7350002 -0.526370E+00  0.173E+00    0.03       1.0  T
   4  -1805.2718777 -0.153688E+01  0.154E+00    0.00       1.0  T
   5  -1805.8512266 -0.579349E+00  0.129E+00    0.01       1.0  T
   6  -1807.4658087 -0.161458E+01  0.984E-01    0.00       1.0  T
   7  -1806.9642505  0.501558E+00  0.106E+00    0.00       1.0  T
   8  -1807.8121350 -0.847884E+00  0.825E-01    0.01       1.0  T
   9  -1807.9065344 -0.943994E-01  0.791E-01    0.00       1.0  T
  10  -1807.7793228  0.127212E+00  0.760E-01    0.00       1.0  T
  11  -1807.6543829  0.124940E+00  0.821E-01    0.00       1.0  T
  12  -1808.2891416 -0.634759E+00  0.581E-01    0.00       1.0  T
  13  -1808.3320103 -0.428687E-01  0.524E-01    0.01       1.0  T
  14  -1808.1438034  0.188207E+00  0.611E-01    0.00       1.0  T
  15  -1808.2718242 -0.128021E+00  0.529E-01    0.00       1.0  T
  16  -1808.3486656 -0.768414E-01  0.510E-01    0.00       1.0  T
  17  -1808.5651929 -0.216527E+00  0.348E-01    0.00       1.0  T
  18  -1808.4351071  0.130086E+00  0.418E-01    0.00       1.0  T
  19  -1808.3951896  0.399175E-01  0.467E-01    0.00       1.0  T
  20  -1808.4349298 -0.397402E-01  0.406E-01    0.00       1.0  T
  21  -1808.6678635 -0.232934E+00  0.241E-01    0.00       1.0  T
  22  -1808.6394982  0.283653E-01  0.261E-01    0.00       1.0  T
  23  -1808.6498662 -0.103680E-01  0.252E-01    0.00       1.0  T
  24  -1808.5772615  0.726047E-01  0.296E-01    0.00       1.0  T
  25  -1808.6366076 -0.593461E-01  0.258E-01    0.00       1.0  T
  26  -1808.6838358 -0.472282E-01  0.203E-01    0.00       1.0  T
  27  -1808.7133272 -0.294914E-01  0.167E-01    0.00       1.0  T
  28  -1808.6821263  0.312009E-01  0.207E-01    0.00       1.0  T
  29  -1808.6794557  0.267053E-02  0.228E-01    0.00       1.0  T
  30  -1808.7038910 -0.244353E-01  0.185E-01    0.00       1.0  T
  31  -1808.7384246 -0.345336E-01  0.987E-02    0.00       1.0  T
  32  -1808.7348538  0.357079E-02  0.112E-01    0.00       1.0  T
  33  -1808.7343367  0.517112E-03  0.103E-01    0.00       1.0  T
  34  -1808.7449378 -0.106011E-01  0.651E-02    0.00       1.0  T
  35  -1808.7474812 -0.254343E-02  0.577E-02    0.00       1.0  T
  36  -1808.7459957  0.148557E-02  0.674E-02    0.00       1.0  T
  37  -1808.7467276 -0.731907E-03  0.599E-02    0.00       1.0  T
  38  -1808.7486900 -0.196241E-02  0.462E-02    0.00       1.0  T
  39  -1808.7481957  0.494320E-03  0.483E-02    0.00       1.0  T
  40  -1808.7502027 -0.200708E-02  0.394E-02    0.00       1.0  T
  41  -1808.7507299 -0.527194E-03  0.352E-02    0.00       1.0  T
  42  -1808.7511194 -0.389478E-03  0.330E-02    0.00       1.0  T
  43  -1808.7519378 -0.818428E-03  0.206E-02    0.00       1.0  T
  44  -1808.7516432  0.294680E-03  0.256E-02    0.00       1.0  T
  45  -1808.7514679  0.175311E-03  0.275E-02    0.00       1.0  T
  46  -1808.7521915 -0.723599E-03  0.173E-02    0.00       1.0  T
  47  -1808.7521834  0.802571E-05  0.175E-02    0.00       1.0  T
  48  -1808.7522338 -0.504188E-04  0.158E-02    0.00       1.0  T
  49  -1808.7523521 -0.118292E-03  0.147E-02    0.00       1.0  T
  50  -1808.7524970 -0.144890E-03  0.100E-02    0.00       1.0  T
  51  -1808.7524045  0.924979E-04  0.130E-02    0.00       1.0  T
  52  -1808.7523842  0.203557E-04  0.132E-02    0.00       1.0  T
  53  -1808.7525413 -0.157169E-03  0.818E-03    0.00       1.0  T
  54  -1808.7525379  0.342609E-05  0.910E-03    0.00       1.0  T
  55  -1808.7525557 -0.177400E-04  0.802E-03    0.00       1.0  T
  56  -1808.7525849 -0.292718E-04  0.692E-03    0.00       1.0  T
  57  -1808.7525907 -0.580187E-05  0.633E-03    0.00       1.0  T
  58  -1808.7525956 -0.490055E-05  0.581E-03    0.00       1.0  T
  59  -1808.7526167 -0.210489E-04  0.473E-03    0.00       1.0  T
  60  -1808.7526234 -0.672295E-05  0.415E-03    0.00       1.0  T
  61  -1808.7526286 -0.515774E-05  0.384E-03    0.00       1.0  T
  62  -1808.7526313 -0.273141E-05  0.353E-03    0.00       1.0  T
  63  -1808.7526413 -0.997791E-05  0.263E-03    0.00       1.3  T
  64  -1808.7526389  0.235595E-05  0.278E-03    0.00       1.2  T
  65  -1808.7526399 -0.943694E-06  0.256E-03    0.00       1.3  T
  66  -1808.7526427 -0.280228E-05  0.220E-03    0.00       1.5  T
  67  -1808.7526445 -0.183553E-05  0.199E-03    0.00       1.7  T
  68  -1808.7526476 -0.309411E-05  0.143E-03    0.00       2.3  T
  69  -1808.7526479 -0.300716E-06  0.141E-03    0.00       2.4  T
  70  -1808.7526489 -0.105433E-05  0.109E-03    0.00       3.1  T
  71  -1808.7526492 -0.255162E-06  0.937E-04    0.00       3.6  T
  72  -1808.7526499 -0.661391E-06  0.813E-04    0.00       4.1  T

   *** convergence criteria satisfied after 72 iterations ***

         #    Occupation            Energy/Eh            Energy/eV
      -------------------------------------------------------------
         1        2.0000           -0.7842262             -21.3399
       ...           ...                  ...                  ...
      1519        1.5358           -0.4374873             -11.9046
      1520        1.5147           -0.4374317             -11.9031
      1521        1.5018           -0.4373987             -11.9022
      1522        1.4978           -0.4373888             -11.9020
      1523        1.4814           -0.4373477             -11.9008
      1524        1.4513           -0.4372746             -11.8988
      1525        1.4414           -0.4372510             -11.8982 (HOMO)
      1526        1.4238           -0.4372100             -11.8971 (LUMO)
      1527        1.4112           -0.4371809             -11.8963
      1528        1.3920           -0.4371375             -11.8951
      1529        1.3570           -0.4370600             -11.8930
      1530        1.2710           -0.4368785             -11.8881
       ...           ...                  ...                  ...
      2720                          1.3450437              36.6005
      -------------------------------------------------------------
                  HL-Gap            0.0000410 Eh            0.0011 eV
             Fermi-level           -0.4363505 Eh          -11.8737 eV

 SCC (total)                   0 d,  0 h,  1 min, 18.481 sec
 SCC setup                      ...        0 min,  0.109 sec (  0.138%)
 Dispersion                     ...        0 min,  0.411 sec (  0.524%)
 classical contributions        ...        0 min,  0.005 sec (  0.006%)
 integral evaluation            ...        0 min,  0.869 sec (  1.107%)
 iterations                     ...        1 min, 14.077 sec ( 94.388%)
 molecular gradient             ...        0 min,  2.853 sec (  3.635%)
 printout                       ...        0 min,  0.158 sec (  0.202%)

         :::::::::::::::::::::::::::::::::::::::::::::::::::::
         ::                     SUMMARY                     ::
         :::::::::::::::::::::::::::::::::::::::::::::::::::::
         :: total energy           -1791.244301755058 Eh    ::
         :: total w/o Gsasa/hb     -1791.085482151779 Eh    ::
         :: gradient norm              0.933600498542 Eh/a0 ::
         :: HOMO-LUMO gap              0.001115827532 eV    ::
         ::.................................................::
         :: SCC energy             -1808.752649859568 Eh    ::
         :: -> isotropic ES            7.803640359902 Eh    ::
         :: -> anisotropic ES         -0.992981016775 Eh    ::
         :: -> anisotropic XC          0.317481298543 Eh    ::
         :: -> dispersion             -1.531791536561 Eh    ::
         :: -> Gsolv                  -2.524368105312 Eh    ::
         ::    -> Gelec               -2.365548502033 Eh    ::
         ::    -> Gsasa               -0.004100210789 Eh    ::
         ::    -> Ghb                 -0.156576835617 Eh    ::
         ::    -> Gshift               0.001857443127 Eh    ::
         :: repulsion energy          17.365753714195 Eh    ::
         :: add. restraining           0.000000000000 Eh    ::
         :: total charge               0.000000000126 e     ::
         :::::::::::::::::::::::::::::::::::::::::::::::::::::

           -------------------------------------------------
          |                Property Printout                |
           -------------------------------------------------

    * Orbital Energies and Occupations

         #    Occupation            Energy/Eh            Energy/eV
      -------------------------------------------------------------
         1        2.0000           -0.7842262             -21.3399
       ...           ...                  ...                  ...
      1513        1.6324           -0.4377670             -11.9122
      1514        1.6322           -0.4377661             -11.9122
      1515        1.6293           -0.4377569             -11.9120
      1516        1.6141           -0.4377100             -11.9107
      1517        1.5631           -0.4375615             -11.9067
      1518        1.5432           -0.4375071             -11.9052
      1519        1.5358           -0.4374873             -11.9046
      1520        1.5147           -0.4374317             -11.9031
      1521        1.5018           -0.4373987             -11.9022
      1522        1.4978           -0.4373888             -11.9020
      1523        1.4814           -0.4373477             -11.9008
      1524        1.4513           -0.4372746             -11.8988
      1525        1.4414           -0.4372510             -11.8982 (HOMO)
      1526        1.4238           -0.4372100             -11.8971 (LUMO)
      1527        1.4112           -0.4371809             -11.8963
      1528        1.3920           -0.4371375             -11.8951
      1529        1.3570           -0.4370600             -11.8930
      1530        1.2710           -0.4368785             -11.8881
      1531        1.2173           -0.4367701             -11.8851
      1532        1.1378           -0.4366141             -11.8809
      1533        1.0446           -0.4364354             -11.8760
      1534        1.0415           -0.4364295             -11.8759
      1535        0.9518           -0.4362589             -11.8712
      1536        0.9164           -0.4361913             -11.8694
       ...           ...                  ...                  ...
      2720                          1.3450437              36.6005
      -------------------------------------------------------------
                  HL-Gap            0.0000410 Eh            0.0011 eV
             Fermi-level           -0.4363505 Eh          -11.8737 eV

 * generalized Born model for continuum solvation

     #   Z     Born rad/Å   SASA/Å²    H-bond
     1   8 O        2.249    15.442    -0.002
     2   6 C        2.710     1.624    -0.000
     3   6 C        3.192     0.264    -0.000
     4   8 O        2.826     7.711    -0.001
     5   6 C        3.290     0.017    -0.000
     6   8 O        2.691     3.098    -0.000
     7   6 C        3.215    -0.002     0.000
     8   6 C        3.437     0.455    -0.000
     9   7 N        3.251     1.146    -0.000
    10   6 C        3.209     5.391    -0.000
    11   8 O        2.476    15.534    -0.002
    12   7 N        3.080     3.865    -0.001
    13   6 C        3.325     3.536    -0.000
    14   7 N        2.527     4.308    -0.001
    15   6 C        2.992     8.214    -0.000
    16   6 C        3.032     5.943    -0.000
    17   1 H        2.053    18.845    -0.025
    18   1 H        2.066    17.600    -0.024
    19   1 H        2.203    13.172    -0.018
    20   1 H        2.273     7.141    -0.010
    21   1 H        2.272     8.114    -0.011
    22   1 H        2.401     0.490    -0.001
    23   1 H        2.442     6.810    -0.009
    24   1 H        2.376     5.321    -0.007
    25   1 H        2.139    19.612    -0.026
    26   1 H        2.051    18.682    -0.025
    27   1 H        2.146    12.970    -0.017
    28   1 H        1.958    16.750    -0.022
    29  15 P        3.174     9.681    -0.001
    30   8 O        2.174    25.655    -0.004
    31   8 O        2.216    21.987    -0.003
    32   8 O        2.709     0.352    -0.000
    33   6 C        2.886     0.610    -0.000
    34   6 C        3.229     0.358    -0.000
    35   8 O        2.846     9.845    -0.001
    36   6 C        3.269     0.327    -0.000
    37   8 O        2.621     4.843    -0.001
    38   6 C        3.218     0.948    -0.000
    39   6 C        3.529     0.313    -0.000
    40   7 N        3.689     0.234    -0.000
    41   6 C        3.205     3.683    -0.000
    42   7 N        2.829    10.679    -0.003
    43   6 C        4.066     0.830    -0.000
    44   6 C        3.555     1.119    -0.000
    45   8 O        2.558    13.299    -0.002
    46   7 N        3.688     0.079    -0.000
    47   6 C        4.116     0.047    -0.000
    48   7 N        2.875     0.259    -0.000
    49   7 N        3.378     3.238    -0.001
    50   6 C        4.303     0.303    -0.000
    51   1 H        2.198     8.807    -0.012
    52   1 H        2.122    14.452    -0.019
    53   1 H        2.186    15.798    -0.021
    54   1 H        2.233    11.189    -0.015
    55   1 H        2.331     7.389    -0.010
    56   1 H        2.284     5.713    -0.008
    57   1 H        2.485     2.651    -0.004
    58   1 H        2.325     5.626    -0.008
    59   1 H        3.666     0.036    -0.000
    60   1 H        2.858     0.282    -0.000
    61   1 H        2.356    12.725    -0.017
    62  15 P        3.181     8.678    -0.001
    63   8 O        2.179    24.617    -0.003
    64   8 O        2.210    22.543    -0.003
    65   8 O        2.661     0.922    -0.000
    66   6 C        2.867     0.614    -0.000
    67   6 C        3.344     0.212    -0.000
    68   8 O        3.140     1.073    -0.000
    69   6 C        3.394     0.033    -0.000
    70   8 O        2.670     4.511    -0.001
    71   6 C        3.446     0.000     0.000
    72   6 C        3.770     0.001    -0.000
    73   7 N        3.861     0.001    -0.000
    74   6 C        3.761     0.011    -0.000
    75   8 O        2.873     2.762    -0.000
    76   7 N        3.546     0.170    -0.000
    77   6 C        3.690     1.798    -0.000
    78   7 N        2.639     4.783    -0.001
    79   6 C        3.262     4.792    -0.000
    80   6 C        3.427     1.986    -0.000
    81   1 H        2.155    13.625    -0.018
    82   1 H        2.148    12.904    -0.017
    83   1 H        2.247    14.459    -0.019
    84   1 H        2.336     8.208    -0.011
    85   1 H        2.461     4.900    -0.007
    86   1 H        2.559     0.120    -0.000
    87   1 H        2.536     6.413    -0.009
    88   1 H        2.500     2.185    -0.003
    89   1 H        2.201    20.153    -0.027
    90   1 H        2.149    14.803    -0.020
    91   1 H        2.400     2.871    -0.004
    92  15 P        3.210     8.709    -0.001
    93   8 O        2.192    24.355    -0.003
    94   8 O        2.206    23.240    -0.003
    95   8 O        2.786     0.109    -0.000
    96   6 C        2.909     0.695    -0.000
    97   6 C        3.296     0.362    -0.000
    98   8 O        3.038     6.459    -0.001
    99   6 C        3.357     0.209    -0.000
   100   8 O        2.614     5.011    -0.001
   101   6 C        3.283     0.779    -0.000
   102   6 C        3.701     0.187    -0.000
   103   7 N        3.954     0.013    -0.000
   104   6 C        3.346     3.329    -0.000
   105   7 N        3.002    11.030    -0.003
   106   6 C        4.542     0.110    -0.000
   107   6 C        3.950     0.048    -0.000
   108   8 O        2.770     4.960    -0.001
   109   7 N        3.972     0.000     0.000
   110   6 C        4.431     0.000     0.000
   111   7 N        2.932     0.590    -0.000
   112   7 N        3.474     2.167    -0.001
   113   6 C        4.717     0.098    -0.000
   114   1 H        2.193    11.396    -0.015
   115   1 H        2.140    13.534    -0.018
   116   1 H        2.190    16.117    -0.022
   117   1 H        2.271     8.332    -0.011
   118   1 H        2.374     7.383    -0.010
   119   1 H        2.332     4.697    -0.006
   120   1 H        2.573     4.041    -0.005
   121   1 H        2.349     7.010    -0.009
   122   1 H        3.548     0.000    -0.000
   123   1 H        2.831     1.949    -0.003
   124   1 H        2.348    16.392    -0.022
   125  15 P        3.184    10.186    -0.001
   126   8 O        2.170    25.299    -0.003
   127   8 O        2.191    23.656    -0.003
   128   8 O        2.606     4.071    -0.001
   129   6 C        2.883     0.292    -0.000
   130   6 C        3.349     0.065    -0.000
   131   8 O        3.214     1.683    -0.000
   132   6 C        3.339     0.101    -0.000
   133   8 O        2.691     3.983    -0.001
   134   6 C        3.333     0.438    -0.000
   135   6 C        3.809     0.022    -0.000
   136   7 N        4.209     0.003    -0.000
   137   6 C        3.429     3.139    -0.000
   138   7 N        2.971    11.142    -0.003
   139   6 C        4.783     0.695    -0.000
   140   6 C        4.372     0.028    -0.000
   141   7 N        2.788     0.672    -0.000
   142   7 N        4.112     0.001    -0.000
   143   6 C        3.801     0.056    -0.000
   144   7 N        3.328     3.038    -0.001
   145   6 C        4.988     0.000    -0.000
   146   1 H        2.235    10.483    -0.014
   147   1 H        2.177    12.828    -0.017
   148   1 H        2.329    12.520    -0.017
   149   1 H        2.255     9.915    -0.013
   150   1 H        2.325    11.401    -0.015
   151   1 H        2.434     0.830    -0.001
   152   1 H        2.510     4.477    -0.006
   153   1 H        2.370     6.003    -0.008
   154   1 H        2.711     1.947    -0.003
   155   1 H        2.279    16.783    -0.022
   156   1 H        2.672     2.671    -0.004
   157  15 P        3.185    10.639    -0.001
   158   8 O        2.157    27.235    -0.004
   159   8 O        2.225    22.004    -0.003
   160   8 O        2.632     2.691    -0.000
   161   6 C        2.903     0.503    -0.000
   162   6 C        3.345     0.164    -0.000
   163   8 O        3.129     1.659    -0.000
   164   6 C        3.298     0.069    -0.000
   165   8 O        2.647     4.014    -0.001
   166   6 C        3.323     0.530    -0.000
   167   6 C        3.719     0.047    -0.000
   168   7 N        4.137     0.001    -0.000
   169   6 C        3.399     2.828    -0.000
   170   7 N        3.028    11.503    -0.003
   171   6 C        4.893     0.299    -0.000
   172   6 C        4.288     0.130    -0.000
   173   7 N        2.792     0.544    -0.000
   174   7 N        3.864     0.000    -0.000
   175   6 C        3.681     0.082    -0.000
   176   7 N        3.366     2.624    -0.001
   177   6 C        4.973     0.000    -0.000
   178   1 H        2.238     8.745    -0.012
   179   1 H        2.143    15.133    -0.020
   180   1 H        2.264    14.079    -0.019
   181   1 H        2.221     9.049    -0.012
   182   1 H        2.335     9.339    -0.012
   183   1 H        2.469     0.947    -0.001
   184   1 H        2.539     6.127    -0.008
   185   1 H        2.372     7.858    -0.011
   186   1 H        2.720     1.267    -0.002
   187   1 H        2.306    16.095    -0.022
   188   1 H        2.579     3.307    -0.004
   189  15 P        3.161    11.193    -0.001
   190   8 O        2.172    25.925    -0.004
   191   8 O        2.189    24.868    -0.003
   192   8 O        2.632     2.829    -0.000
   193   6 C        2.906     0.703    -0.000
   194   6 C        3.367     0.242    -0.000
   195   8 O        3.242     1.143    -0.000
   196   6 C        3.316     0.220    -0.000
   197   8 O        2.688     3.879    -0.001
   198   6 C        3.395     0.239    -0.000
   199   6 C        3.839     0.036    -0.000
   200   7 N        4.259     0.000     0.000
   201   6 C        3.443     1.003    -0.000
   202   7 N        2.990    10.059    -0.003
   203   6 C        4.715     0.108    -0.000
   204   6 C        4.221     0.066    -0.000
   205   7 N        2.794     0.497    -0.000
   206   7 N        3.754     0.053    -0.000
   207   6 C        3.602     0.042    -0.000
   208   7 N        3.390     1.603    -0.000
   209   6 C        4.944     0.000    -0.000
   210   1 H        2.252     7.543    -0.010
   211   1 H        2.122    15.772    -0.021
   212   1 H        2.262    13.722    -0.018
   213   1 H        2.250     9.084    -0.012
   214   1 H        2.371     7.788    -0.010
   215   1 H        2.442     0.472    -0.001
   216   1 H        2.585     4.913    -0.007
   217   1 H        2.363     8.017    -0.011
   218   1 H        2.730     0.627    -0.001
   219   1 H        2.280    18.041    -0.024
   220   1 H        2.529     4.000    -0.005
   221  15 P        3.181    10.663    -0.001
   222   8 O        2.184    24.772    -0.003
   223   8 O        2.203    24.260    -0.003
   224   8 O        2.657     1.218    -0.000
   225   6 C        2.873     0.640    -0.000
   226   6 C        3.328     0.243    -0.000
   227   8 O        3.159     2.272    -0.000
   228   6 C        3.333     0.272    -0.000
   229   8 O        2.676     3.750    -0.001
   230   6 C        3.363     0.505    -0.000
   231   6 C        3.763     0.077    -0.000
   232   7 N        3.772     0.000     0.000
   233   6 C        3.752     0.011    -0.000
   234   8 O        2.649     7.046    -0.001
   235   7 N        3.437     0.010    -0.000
   236   6 C        3.597     0.027    -0.000
   237   8 O        2.700     4.136    -0.001
   238   6 C        3.885     0.041    -0.000
   239   6 C        2.801     2.387    -0.000
   240   6 C        3.586     0.046    -0.000
   241   1 H        2.187    10.181    -0.014
   242   1 H        2.127    14.088    -0.019
   243   1 H        2.240    15.414    -0.021
   244   1 H        2.251     8.921    -0.012
   245   1 H        2.383     6.616    -0.009
   246   1 H        2.401     1.682    -0.002
   247   1 H        2.537     5.751    -0.008
   248   1 H        2.993     0.098    -0.000
   249   1 H        2.136    17.210    -0.023
   250   1 H        2.234     8.451    -0.011
   251   1 H        2.277     7.982    -0.011
   252   1 H        2.427     2.799    -0.004
   253  15 P        3.181     9.747    -0.001
   254   8 O        2.183    24.829    -0.003
   255   8 O        2.185    24.573    -0.003
   256   8 O        2.584     3.903    -0.001
   257   6 C        2.839     0.455    -0.000
   258   6 C        3.303     0.146    -0.000
   259   8 O        3.077     1.568    -0.000
   260   6 C        3.354     0.057    -0.000
   261   8 O        2.721     4.272    -0.001
   262   6 C        3.419     0.005    -0.000
   263   6 C        3.743     0.124    -0.000
   264   7 N        3.746     0.002    -0.000
   265   6 C        3.785     0.009    -0.000
   266   8 O        2.781     2.125    -0.000
   267   7 N        3.404     0.003    -0.000
   268   6 C        3.460     0.273    -0.000
   269   8 O        2.538     8.774    -0.001
   270   6 C        3.669     0.255    -0.000
   271   6 C        2.727     2.785    -0.000
   272   6 C        3.513     0.144    -0.000
   273   1 H        2.200    10.944    -0.015
   274   1 H        2.128    15.116    -0.020
   275   1 H        2.268    11.834    -0.016
   276   1 H        2.278    10.436    -0.014
   277   1 H        2.412     3.651    -0.005
   278   1 H        2.629     0.000     0.000
   279   1 H        2.535     5.220    -0.007
   280   1 H        3.231     0.017    -0.000
   281   1 H        2.111    18.947    -0.025
   282   1 H        2.159    12.105    -0.016
   283   1 H        2.184     8.515    -0.011
   284   1 H        2.417     3.613    -0.005
   285  15 P        3.218    10.294    -0.001
   286   8 O        2.188    26.056    -0.004
   287   8 O        2.236    19.282    -0.003
   288   8 O        2.690     2.167    -0.000
   289   6 C        2.966     0.372    -0.000
   290   6 C        3.374     0.273    -0.000
   291   8 O        3.222     2.795    -0.000
   292   6 C        3.357     0.488    -0.000
   293   8 O        2.657     5.365    -0.001
   294   6 C        3.364     0.692    -0.000
   295   6 C        3.920     0.035    -0.000
   296   7 N        3.948     0.000    -0.000
   297   6 C        3.817     0.338    -0.000
   298   8 O        2.669    10.058    -0.001
   299   7 N        3.576     0.052    -0.000
   300   6 C        3.779     0.009    -0.000
   301   8 O        2.814     5.362    -0.001
   302   6 C        4.000     0.000    -0.000
   303   6 C        2.808     2.222    -0.000
   304   6 C        3.735     0.016    -0.000
   305   1 H        2.320     5.053    -0.007
   306   1 H        2.154    14.581    -0.019
   307   1 H        2.235    15.005    -0.020
   308   1 H        2.235     9.309    -0.012
   309   1 H        2.385     7.475    -0.010
   310   1 H        2.410     1.933    -0.003
   311   1 H        2.708     2.784    -0.004
   312   1 H        3.438     0.033    -0.000
   313   1 H        2.205    10.259    -0.014
   314   1 H        2.214     9.609    -0.013
   315   1 H        2.242     9.664    -0.013
   316   1 H        2.570     1.717    -0.002
   317  15 P        3.188    10.826    -0.001
   318   8 O        2.200    23.829    -0.003
   319   8 O        2.188    24.837    -0.003
   320   8 O        2.683     2.584    -0.000
   321   6 C        2.927     0.535    -0.000
   322   6 C        3.330     0.140    -0.000
   323   8 O        3.165     0.970    -0.000
   324   6 C        3.351     0.081    -0.000
   325   8 O        2.661     4.641    -0.001
   326   6 C        3.273     0.369    -0.000
   327   6 C        3.676     0.339    -0.000
   328   7 N        3.670     0.052    -0.000
   329   6 C        3.743     0.328    -0.000
   330   8 O        2.885     3.075    -0.000
   331   7 N        3.748     0.013    -0.000
   332   6 C        3.845     1.517    -0.000
   333   7 N        2.760     2.443    -0.001
   334   6 C        3.365     3.899    -0.000
   335   6 C        3.395     2.155    -0.000
   336   1 H        2.267     8.236    -0.011
   337   1 H        2.168    14.029    -0.019
   338   1 H        2.286    13.838    -0.018
   339   1 H        2.280     8.151    -0.011
   340   1 H        2.317    10.070    -0.013
   341   1 H        2.452     0.080    -0.000
   342   1 H        2.452     5.961    -0.008
   343   1 H        2.669     2.024    -0.003
   344   1 H        2.338     9.414    -0.013
   345   1 H        2.228    12.762    -0.017
   346   1 H        2.353     6.612    -0.009
   347  15 P        3.186    10.971    -0.001
   348   8 O        2.198    23.711    -0.003
   349   8 O        2.204    23.822    -0.003
   350   8 O        2.758     0.737    -0.000
   351   6 C        2.921     0.622    -0.000
   352   6 C        3.401     0.295    -0.000
   353   8 O        3.055     4.834    -0.001
   354   6 C        3.417     0.179    -0.000
   355   8 O        2.816     0.296    -0.000
   356   6 C        3.266     0.959    -0.000
   357   6 C        3.814     0.041    -0.000
   358   7 N        4.047     0.001    -0.000
   359   6 C        3.292     1.674    -0.000
   360   7 N        2.945    11.315    -0.003
   361   6 C        4.419     0.186    -0.000
   362   6 C        3.901     0.108    -0.000
   363   8 O        2.743     7.569    -0.001
   364   7 N        3.896     0.000     0.000
   365   6 C        4.337     0.014    -0.000
   366   7 N        2.894     0.553    -0.000
   367   7 N        3.516     4.143    -0.001
   368   6 C        4.831     0.006    -0.000
   369   1 H        2.202    12.101    -0.016
   370   1 H        2.173    10.176    -0.014
   371   1 H        2.292     7.390    -0.010
   372   1 H        2.275     9.667    -0.013
   373   1 H        2.324     7.742    -0.010
   374   1 H        2.278     8.774    -0.012
   375   1 H        2.739     0.805    -0.001
   376   1 H        2.280    13.020    -0.017
   377   1 H        3.622     0.000     0.000
   378   1 H        2.691     2.546    -0.003
   379   1 H        2.338    15.188    -0.020
   380  15 P        3.187     9.375    -0.001
   381   8 O        2.266    15.172    -0.002
   382   8 O        2.165    28.375    -0.004
   383   8 O        2.543     5.546    -0.001
   384   6 C        2.789     0.869    -0.000
   385   6 C        3.227     0.116    -0.000
   386   8 O        2.979     3.277    -0.000
   387   6 C        3.197     0.216    -0.000
   388   8 O        2.569     5.743    -0.001
   389   6 C        3.212     0.486    -0.000
   390   6 C        3.541     0.398    -0.000
   391   7 N        3.626     0.008    -0.000
   392   6 C        3.679     0.006    -0.000
   393   8 O        2.770     4.367    -0.001
   394   7 N        3.697     0.000    -0.000
   395   6 C        3.875     0.351    -0.000
   396   7 N        2.745     0.583    -0.000
   397   6 C        3.364     3.560    -0.000
   398   6 C        3.332     2.201    -0.000
   399   1 H        2.165     9.168    -0.012
   400   1 H        2.075    18.449    -0.025
   401   1 H        2.229    13.813    -0.018
   402   1 H        2.203     8.502    -0.011
   403   1 H        2.285     9.905    -0.013
   404   1 H        2.354     0.731    -0.001
   405   1 H        2.383     7.858    -0.010
   406   1 H        2.692     1.302    -0.002
   407   1 H        2.266    14.803    -0.020
   408   1 H        2.189    11.631    -0.016
   409   1 H        2.293     6.394    -0.009
   410  15 P        3.156     9.558    -0.001
   411   8 O        2.165    25.335    -0.003
   412   8 O        2.194    23.621    -0.003
   413   8 O        2.607     0.615    -0.000
   414   6 C        2.812     0.482    -0.000
   415   6 C        3.153     0.298    -0.000
   416   8 O        2.862     9.288    -0.001
   417   6 C        3.096     0.466    -0.000
   418   8 O        2.292    13.701    -0.002
   419   6 C        3.059     1.218    -0.000
   420   6 C        3.428     0.310    -0.000
   421   7 N        3.625     0.501    -0.000
   422   6 C        3.194     5.050    -0.000
   423   7 N        2.864    10.658    -0.003
   424   6 C        3.885     3.187    -0.000
   425   6 C        3.386     3.272    -0.000
   426   8 O        2.482    15.049    -0.002
   427   7 N        3.300     1.492    -0.000
   428   6 C        3.584     4.702    -0.000
   429   7 N        2.658     3.713    -0.001
   430   7 N        3.008     8.745    -0.003
   431   6 C        4.010     2.704    -0.000
   432   1 H        2.139    13.207    -0.018
   433   1 H        2.116    13.533    -0.018
   434   1 H        2.156    15.911    -0.021
   435   1 H        2.168    13.425    -0.018
   436   1 H        1.940    20.633    -0.028
   437   1 H        2.288     7.893    -0.011
   438   1 H        2.136    16.785    -0.022
   439   1 H        2.340    11.627    -0.016
   440   1 H        2.338     7.432    -0.010
   441   1 H        3.061     1.061    -0.001
   442   1 H        2.483     2.285    -0.003
   443   1 H        2.212    20.913    -0.028
   444   8 O        2.289    15.092    -0.002
   445   6 C        2.717     1.611    -0.000
   446   6 C        3.159     0.181    -0.000
   447   8 O        2.841     8.042    -0.001
   448   6 C        3.259     0.154    -0.000
   449   8 O        2.600     5.069    -0.001
   450   6 C        3.223     0.547    -0.000
   451   6 C        3.379     0.773    -0.000
   452   7 N        3.320     0.528    -0.000
   453   6 C        3.281     5.545    -0.000
   454   8 O        2.580     8.820    -0.001
   455   7 N        3.239     2.402    -0.001
   456   6 C        3.446     2.497    -0.000
   457   7 N        2.608     3.707    -0.001
   458   6 C        3.062     8.358    -0.000
   459   6 C        3.071     4.885    -0.000
   460   1 H        2.079    18.690    -0.025
   461   1 H        2.083    18.028    -0.024
   462   1 H        2.176    15.240    -0.020
   463   1 H        2.254     7.026    -0.009
   464   1 H        2.321     7.841    -0.010
   465   1 H        2.386     1.140    -0.002
   466   1 H        2.313     8.597    -0.011
   467   1 H        2.522     2.034    -0.003
   468   1 H        2.193    17.788    -0.024
   469   1 H        2.078    18.253    -0.024
   470   1 H        2.182     8.674    -0.012
   471   1 H        2.009    11.361    -0.015
   472  15 P        3.150    11.396    -0.001
   473   8 O        2.190    23.122    -0.003
   474   8 O        2.186    24.336    -0.003
   475   8 O        2.626     2.463    -0.000
   476   6 C        2.850     0.501    -0.000
   477   6 C        3.319     0.203    -0.000
   478   8 O        3.111     1.247    -0.000
   479   6 C        3.345     0.057    -0.000
   480   8 O        2.680     3.933    -0.001
   481   6 C        3.341     0.212    -0.000
   482   6 C        3.693     0.063    -0.000
   483   7 N        3.908    -0.000     0.000
   484   6 C        3.333     1.159    -0.000
   485   7 N        2.955     8.368    -0.003
   486   6 C        4.385     0.025    -0.000
   487   6 C        3.796     0.028    -0.000
   488   8 O        2.782     5.244    -0.001
   489   7 N        3.771     0.000    -0.000
   490   6 C        4.077     0.004    -0.000
   491   7 N        2.802     1.197    -0.000
   492   7 N        3.300     2.075    -0.001
   493   6 C        4.575     0.000     0.000
   494   1 H        2.151    11.867    -0.016
   495   1 H        2.118    14.412    -0.019
   496   1 H        2.265    12.844    -0.017
   497   1 H        2.264     8.416    -0.011
   498   1 H        2.326     9.185    -0.012
   499   1 H        2.455     0.167    -0.000
   500   1 H        2.531     3.920    -0.005
   501   1 H        2.322     7.911    -0.011
   502   1 H        3.556     0.001    -0.000
   503   1 H        2.290    17.671    -0.024
   504   1 H        2.610     3.770    -0.005
   505  15 P        3.172    10.462    -0.001
   506   8 O        2.162    26.994    -0.004
   507   8 O        2.232    21.438    -0.003
   508   8 O        2.631     1.660    -0.000
   509   6 C        2.888     0.561    -0.000
   510   6 C        3.351     0.218    -0.000
   511   8 O        3.179     1.082    -0.000
   512   6 C        3.336     0.311    -0.000
   513   8 O        2.696     4.012    -0.001
   514   6 C        3.325     0.825    -0.000
   515   6 C        3.743     0.014    -0.000
   516   7 N        3.772     0.018    -0.000
   517   6 C        3.734     0.002    -0.000
   518   8 O        2.759     5.503    -0.001
   519   7 N        3.762     0.000     0.000
   520   6 C        3.982     0.065    -0.000
   521   7 N        2.769     0.661    -0.000
   522   6 C        3.385     1.648    -0.000
   523   6 C        3.408     1.373    -0.000
   524   1 H        2.218     7.865    -0.011
   525   1 H        2.118    15.667    -0.021
   526   1 H        2.221    15.485    -0.021
   527   1 H        2.243     8.795    -0.012
   528   1 H        2.374     9.076    -0.012
   529   1 H        2.418     0.761    -0.001
   530   1 H        2.534     5.377    -0.007
   531   1 H        2.723     1.659    -0.002
   532   1 H        2.266    16.041    -0.021
   533   1 H        2.190    14.282    -0.019
   534   1 H        2.338     6.307    -0.008
   535  15 P        3.178    10.819    -0.001
   536   8 O        2.187    24.330    -0.003
   537   8 O        2.191    24.079    -0.003
   538   8 O        2.720     0.603    -0.000
   539   6 C        2.940     0.276    -0.000
   540   6 C        3.483     0.353    -0.000
   541   8 O        3.113     3.382    -0.000
   542   6 C        3.443     0.340    -0.000
   543   8 O        2.721     3.379    -0.000
   544   6 C        3.225     0.955    -0.000
   545   6 C        3.808     0.073    -0.000
   546   7 N        3.895     0.158    -0.000
   547   6 C        3.163     5.550    -0.000
   548   7 N        2.816    15.281    -0.005
   549   6 C        4.210     0.538    -0.000
   550   6 C        3.761     0.225    -0.000
   551   8 O        2.675     8.560    -0.001
   552   7 N        3.862     0.016    -0.000
   553   6 C        4.431     0.000    -0.000
   554   7 N        2.991     0.228    -0.000
   555   7 N        3.547     2.975    -0.001
   556   6 C        4.713     0.002    -0.000
   557   1 H        2.200    12.906    -0.017
   558   1 H        2.219     7.329    -0.010
   559   1 H        2.478     2.525    -0.003
   560   1 H        2.300     9.769    -0.013
   561   1 H        2.290     7.471    -0.010
   562   1 H        2.211    14.925    -0.020
   563   1 H        2.970     0.310    -0.000
   564   1 H        2.203    15.372    -0.021
   565   1 H        3.688     0.017    -0.000
   566   1 H        2.907     1.355    -0.002
   567   1 H        2.410    13.761    -0.018
   568  15 P        3.236     9.205    -0.001
   569   8 O        2.314    12.820    -0.002
   570   8 O        2.178    28.224    -0.004
   571   8 O        2.663     2.058    -0.000
   572   6 C        2.946     0.260    -0.000
   573   6 C        3.287     0.259    -0.000
   574   8 O        2.930     9.331    -0.001
   575   6 C        3.302     0.380    -0.000
   576   8 O        2.654     5.066    -0.001
   577   6 C        3.375     0.545    -0.000
   578   6 C        3.670     0.371    -0.000
   579   7 N        4.008     0.326    -0.000
   580   6 C        3.500     0.860    -0.000
   581   7 N        3.186     4.881    -0.001
   582   6 C        5.227     0.000     0.000
   583   6 C        4.798     0.000     0.000
   584   7 N        3.081     0.088    -0.000
   585   7 N        3.877     0.031    -0.000
   586   6 C        3.449     1.123    -0.000
   587   7 N        3.231     4.597    -0.001
   588   6 C        4.714     0.245    -0.000
   589   1 H        2.293     5.993    -0.008
   590   1 H        2.144    15.153    -0.020
   591   1 H        2.194    16.705    -0.022
   592   1 H        2.239    10.185    -0.014
   593   1 H        2.406     6.287    -0.008
   594   1 H        2.455     0.795    -0.001
   595   1 H        2.494     5.130    -0.007
   596   1 H        2.437     4.392    -0.006
   597   1 H        3.331     0.022    -0.000
   598   1 H        2.508     6.476    -0.009
   599   1 H        2.373    10.952    -0.015
   600  15 P        3.170    11.555    -0.001
   601   8 O        2.179    24.395    -0.003
   602   8 O        2.194    24.062    -0.003
   603   8 O        2.665     1.122    -0.000
   604   6 C        2.891     0.416    -0.000
   605   6 C        3.310     0.331    -0.000
   606   8 O        3.106     3.709    -0.001
   607   6 C        3.328     0.038    -0.000
   608   8 O        2.754     0.732    -0.000
   609   6 C        3.228     1.414    -0.000
   610   6 C        3.908     0.040    -0.000
   611   7 N        4.212     0.002    -0.000
   612   6 C        3.388     3.946    -0.000
   613   7 N        2.953    10.849    -0.003
   614   6 C        4.830     0.038    -0.000
   615   6 C        4.462     0.000    -0.000
   616   7 N        2.800     0.742    -0.000
   617   7 N        3.998     0.015    -0.000
   618   6 C        3.784     0.087    -0.000
   619   7 N        3.386     5.040    -0.002
   620   6 C        5.035     0.001    -0.000
   621   1 H        2.214     9.520    -0.013
   622   1 H        2.149    13.345    -0.018
   623   1 H        2.218    14.966    -0.020
   624   1 H        2.227     9.893    -0.013
   625   1 H        2.304     7.909    -0.011
   626   1 H        2.250     9.390    -0.013
   627   1 H        2.749     2.818    -0.004
   628   1 H        2.343     8.703    -0.012
   629   1 H        2.536     3.522    -0.005
   630   1 H        2.312    16.752    -0.022
   631   1 H        2.729     0.981    -0.001
   632  15 P        3.199     6.854    -0.001
   633   8 O        2.188    24.461    -0.003
   634   8 O        2.183    25.055    -0.003
   635   8 O        2.628     2.679    -0.000
   636   6 C        2.885     0.358    -0.000
   637   6 C        3.263     0.351    -0.000
   638   8 O        2.985     8.179    -0.001
   639   6 C        3.294     0.505    -0.000
   640   8 O        2.661     5.020    -0.001
   641   6 C        3.365     0.417    -0.000
   642   6 C        3.699     0.841    -0.000
   643   7 N        4.013     0.466    -0.000
   644   6 C        3.474     0.654    -0.000
   645   7 N        3.060     6.034    -0.002
   646   6 C        4.777     0.142    -0.000
   647   6 C        4.353     0.062    -0.000
   648   7 N        2.863     0.447    -0.000
   649   7 N        3.602     0.029    -0.000
   650   6 C        3.488     0.094    -0.000
   651   7 N        3.199     5.525    -0.002
   652   6 C        4.666     0.622    -0.000
   653   1 H        2.202    11.941    -0.016
   654   1 H        2.133    15.619    -0.021
   655   1 H        2.180    17.012    -0.023
   656   1 H        2.219    10.558    -0.014
   657   1 H        2.379     6.553    -0.009
   658   1 H        2.391     0.661    -0.001
   659   1 H        2.515     4.097    -0.005
   660   1 H        2.428     3.325    -0.004
   661   1 H        2.698     1.239    -0.002
   662   1 H        2.373    12.962    -0.017
   663   1 H        2.471     4.038    -0.005
   664  15 P        3.205    10.267    -0.001
   665   8 O        2.188    24.441    -0.003
   666   8 O        2.208    23.113    -0.003
   667   8 O        2.693     0.748    -0.000
   668   6 C        2.906     0.510    -0.000
   669   6 C        3.314     0.255    -0.000
   670   8 O        3.154     1.564    -0.000
   671   6 C        3.293     0.344    -0.000
   672   8 O        2.608     6.255    -0.001
   673   6 C        3.359     0.137    -0.000
   674   6 C        3.708     0.007    -0.000
   675   7 N        3.800     0.000    -0.000
   676   6 C        3.742     0.097    -0.000
   677   8 O        2.744     2.721    -0.000
   678   7 N        3.390     0.019    -0.000
   679   6 C        3.488     0.316    -0.000
   680   8 O        2.498    11.518    -0.002
   681   6 C        3.738     0.047    -0.000
   682   6 C        2.744     2.740    -0.000
   683   6 C        3.482     0.876    -0.000
   684   1 H        2.205    10.477    -0.014
   685   1 H        2.159    12.559    -0.017
   686   1 H        2.222    14.800    -0.020
   687   1 H        2.283     7.746    -0.010
   688   1 H        2.372     6.982    -0.009
   689   1 H        2.420     0.188    -0.000
   690   1 H        2.492     7.593    -0.010
   691   1 H        3.165     0.004    -0.000
   692   1 H        2.186    10.130    -0.014
   693   1 H        2.179    12.202    -0.016
   694   1 H        2.123    16.091    -0.022
   695   1 H        2.420     2.213    -0.003
   696  15 P        3.191     8.377    -0.001
   697   8 O        2.187    25.258    -0.003
   698   8 O        2.210    23.567    -0.003
   699   8 O        2.614     2.816    -0.000
   700   6 C        2.868     0.447    -0.000
   701   6 C        3.289     0.203    -0.000
   702   8 O        2.933     4.660    -0.001
   703   6 C        3.285     0.308    -0.000
   704   8 O        2.648     4.766    -0.001
   705   6 C        3.300     0.465    -0.000
   706   6 C        3.695     0.396    -0.000
   707   7 N        3.729     0.001    -0.000
   708   6 C        3.719     0.041    -0.000
   709   8 O        2.677     6.515    -0.001
   710   7 N        3.485     0.000    -0.000
   711   6 C        3.674     0.001    -0.000
   712   8 O        2.738     5.175    -0.001
   713   6 C        3.903     0.001    -0.000
   714   6 C        2.789     2.324    -0.000
   715   6 C        3.558     0.073    -0.000
   716   1 H        2.220    10.185    -0.014
   717   1 H        2.134    15.373    -0.021
   718   1 H        2.215    15.195    -0.020
   719   1 H        2.227    10.014    -0.013
   720   1 H        2.360     7.788    -0.010
   721   1 H        2.352     2.946    -0.004
   722   1 H        2.489     3.881    -0.005
   723   1 H        3.230     0.001    -0.000
   724   1 H        2.265     4.875    -0.007
   725   1 H        2.163    13.625    -0.018
   726   1 H        2.173    13.211    -0.018
   727   1 H        2.406     3.260    -0.004
   728  15 P        3.175    10.957    -0.001
   729   8 O        2.171    25.576    -0.004
   730   8 O        2.202    23.182    -0.003
   731   8 O        2.617     3.292    -0.000
   732   6 C        2.902     0.458    -0.000
   733   6 C        3.360     0.072    -0.000
   734   8 O        3.233     0.299    -0.000
   735   6 C        3.313     0.093    -0.000
   736   8 O        2.614     4.626    -0.001
   737   6 C        3.393     0.076    -0.000
   738   6 C        3.797     0.005    -0.000
   739   7 N        3.894     0.000    -0.000
   740   6 C        4.028     0.000     0.000
   741   8 O        2.859     2.804    -0.000
   742   7 N        3.616     0.000    -0.000
   743   6 C        3.612     0.082    -0.000
   744   8 O        2.625     9.606    -0.001
   745   6 C        3.798     0.778    -0.000
   746   6 C        2.779     2.657    -0.000
   747   6 C        3.528     1.578    -0.000
   748   1 H        2.248     8.369    -0.011
   749   1 H        2.161    13.255    -0.018
   750   1 H        2.339    13.142    -0.018
   751   1 H        2.256     9.547    -0.013
   752   1 H        2.404     6.299    -0.008
   753   1 H        2.545     0.195    -0.000
   754   1 H        2.503     7.799    -0.010
   755   1 H        3.680     0.006    -0.000
   756   1 H        2.216     8.581    -0.011
   757   1 H        2.276     4.088    -0.005
   758   1 H        2.111    19.249    -0.026
   759   1 H        2.428     4.342    -0.006
   760  15 P        3.168     9.428    -0.001
   761   8 O        2.181    25.232    -0.003
   762   8 O        2.198    24.747    -0.003
   763   8 O        2.615     3.283    -0.000
   764   6 C        2.826     0.751    -0.000
   765   6 C        3.348     0.331    -0.000
   766   8 O        3.166     2.313    -0.000
   767   6 C        3.401     0.003    -0.000
   768   8 O        2.618     5.358    -0.001
   769   6 C        3.353     0.068    -0.000
   770   6 C        3.769     0.004    -0.000
   771   7 N        3.918     0.000    -0.000
   772   6 C        3.864     0.000    -0.000
   773   8 O        2.905     4.553    -0.001
   774   7 N        3.872     0.000    -0.000
   775   6 C        4.020     0.043    -0.000
   776   7 N        2.765     0.538    -0.000
   777   6 C        3.495     1.873    -0.000
   778   6 C        3.560     1.289    -0.000
   779   1 H        2.148    13.955    -0.019
   780   1 H        2.106    15.140    -0.020
   781   1 H        2.264    14.259    -0.019
   782   1 H        2.366     4.936    -0.007
   783   1 H        2.511     0.039    -0.000
   784   1 H        2.322     7.995    -0.011
   785   1 H        2.516     8.670    -0.012
   786   1 H        2.623     1.225    -0.002
   787   1 H        2.281    15.812    -0.021
   788   1 H        2.214    13.816    -0.018
   789   1 H        2.463     5.098    -0.007
   790  15 P        3.200     9.206    -0.001
   791   8 O        2.177    25.096    -0.003
   792   8 O        2.200    24.124    -0.003
   793   8 O        2.691     1.230    -0.000
   794   6 C        2.878     0.645    -0.000
   795   6 C        3.329     0.292    -0.000
   796   8 O        3.052     4.892    -0.001
   797   6 C        3.330     0.329    -0.000
   798   8 O        2.794     2.501    -0.000
   799   6 C        3.338     0.752    -0.000
   800   6 C        3.761     0.417    -0.000
   801   7 N        4.026     0.038    -0.000
   802   6 C        3.339     2.544    -0.000
   803   7 N        2.968    10.368    -0.003
   804   6 C        4.460     0.079    -0.000
   805   6 C        3.805     0.093    -0.000
   806   8 O        2.624     9.126    -0.001
   807   7 N        3.908     0.000     0.000
   808   6 C        4.540     0.000     0.000
   809   7 N        2.990     0.423    -0.000
   810   7 N        3.604     1.699    -0.001
   811   6 C        4.808     0.016    -0.000
   812   1 H        2.200     9.709    -0.013
   813   1 H        2.119    14.334    -0.019
   814   1 H        2.214    15.677    -0.021
   815   1 H        2.204    11.312    -0.015
   816   1 H        2.384     8.353    -0.011
   817   1 H        2.360     4.733    -0.006
   818   1 H        2.575     3.538    -0.005
   819   1 H        2.333     8.775    -0.012
   820   1 H        3.321     0.119    -0.000
   821   1 H        2.800     2.249    -0.003
   822   1 H        2.410    12.626    -0.017
   823  15 P        3.221     7.612    -0.001
   824   8 O        2.199    24.649    -0.003
   825   8 O        2.230    21.874    -0.003
   826   8 O        2.713     0.194    -0.000
   827   6 C        2.903     0.467    -0.000
   828   6 C        3.258     0.275    -0.000
   829   8 O        3.053     3.462    -0.000
   830   6 C        3.301     0.235    -0.000
   831   8 O        2.598     5.633    -0.001
   832   6 C        3.238     0.683    -0.000
   833   6 C        3.663     0.225    -0.000
   834   7 N        3.719     0.019    -0.000
   835   6 C        3.652     0.072    -0.000
   836   8 O        2.726     7.184    -0.001
   837   7 N        3.635     0.006    -0.000
   838   6 C        3.938     1.093    -0.000
   839   7 N        2.768     1.837    -0.001
   840   6 C        3.517     3.766    -0.000
   841   6 C        3.463     2.259    -0.000
   842   1 H        2.193    11.597    -0.015
   843   1 H        2.162    12.660    -0.017
   844   1 H        2.182    16.374    -0.022
   845   1 H        2.279     8.344    -0.011
   846   1 H        2.317     9.519    -0.013
   847   1 H        2.329     1.384    -0.002
   848   1 H        2.467     5.070    -0.007
   849   1 H        2.851     0.682    -0.001
   850   1 H        2.289    14.594    -0.019
   851   1 H        2.299     8.891    -0.012
   852   1 H        2.409     1.521    -0.002
   853  15 P        3.160    10.625    -0.001
   854   8 O        2.172    25.147    -0.003
   855   8 O        2.191    23.293    -0.003
   856   8 O        2.637     1.827    -0.000
   857   6 C        2.875     0.491    -0.000
   858   6 C        3.248     0.221    -0.000
   859   8 O        2.981     1.565    -0.000
   860   6 C        3.082     0.998    -0.000
   861   8 O        2.297    17.530    -0.002
   862   6 C        3.062     1.232    -0.000
   863   6 C        3.426     0.161    -0.000
   864   7 N        3.588     0.793    -0.000
   865   6 C        3.123     5.349    -0.000
   866   7 N        2.778    14.449    -0.004
   867   6 C        3.820     2.805    -0.000
   868   6 C        3.305     5.293    -0.000
   869   8 O        2.451    15.869    -0.002
   870   7 N        3.284     1.394    -0.000
   871   6 C        3.670     3.859    -0.000
   872   7 N        2.657     4.112    -0.001
   873   7 N        3.151     5.598    -0.002
   874   6 C        4.037     3.142    -0.000
   875   1 H        2.248     7.191    -0.010
   876   1 H        2.142    14.233    -0.019
   877   1 H        2.202    14.108    -0.019
   878   1 H        2.143    13.803    -0.018
   879   1 H        2.023    14.207    -0.019
   880   1 H        2.225    12.404    -0.017
   881   1 H        2.158    16.632    -0.022
   882   1 H        2.398     8.381    -0.011
   883   1 H        2.245     8.585    -0.011
   884   1 H        2.977     1.361    -0.002
   885   1 H        2.480     3.220    -0.004
   886   1 H        2.208    21.138    -0.028

 total SASA / Å² :     5319.505

     #   Z          covCN         q      C6AA      α(0)
     1   8 O        1.656    -0.424    21.323     6.234
     2   6 C        3.675     0.057    19.846     6.383
     3   6 C        3.900     0.095    18.955     6.189
     4   8 O        1.707    -0.280    18.642     5.829
     5   6 C        4.011     0.121    18.539     6.117
     6   8 O        1.660    -0.325    19.442     5.952
     7   6 C        3.809    -0.104    22.480     6.749
     8   6 C        3.844     0.156    18.050     6.043
     9   7 N        2.732    -0.016    21.562     6.897
    10   6 C        2.736     0.320    21.557     7.602
    11   8 O        0.858    -0.472    23.177     6.455
    12   7 N        1.852    -0.282    28.153     7.864
    13   6 C        2.867     0.195    23.851     8.005
    14   7 N        2.669    -0.182    24.942     7.417
    15   6 C        2.907    -0.057    29.408     8.892
    16   6 C        2.859     0.048    26.926     8.505
    17   1 H        0.924     0.103     1.760     2.075
    18   1 H        0.925     0.076     2.026     2.226
    19   1 H        0.924     0.064     2.147     2.292
    20   1 H        0.925     0.079     1.994     2.208
    21   1 H        0.924     0.109     1.703     2.041
    22   1 H        0.925     0.088     1.895     2.153
    23   1 H        0.925     0.094     1.841     2.122
    24   1 H        0.860     0.266     0.823     1.421
    25   1 H        0.860     0.281     0.771     1.376
    26   1 H        0.926     0.168     1.273     1.765
    27   1 H        0.926     0.147     1.410     1.857
    28   1 H        0.805     0.375     0.532     1.146
    29  15 P        3.788     0.641   134.791    20.855
    30   8 O        0.808    -0.540    24.720     6.665
    31   8 O        0.808    -0.519    24.239     6.600
    32   8 O        1.654    -0.310    19.192     5.914
    33   6 C        3.964     0.061    19.482     6.271
    34   6 C        3.780     0.086    19.179     6.239
    35   8 O        1.700    -0.252    18.175     5.756
    36   6 C        3.880     0.118    18.609     6.133
    37   8 O        1.657    -0.305    19.093     5.899
    38   6 C        3.828    -0.099    22.365     6.729
    39   6 C        3.698     0.146    18.373     6.131
    40   7 N        2.819    -0.044    22.084     6.980
    41   6 C        3.111     0.110    25.425     8.261
    42   7 N        1.850    -0.171    25.503     7.485
    43   6 C        3.208     0.008    27.227     8.496
    44   6 C        2.786     0.267    22.502     7.770
    45   8 O        0.861    -0.376    21.202     6.174
    46   7 N        2.722    -0.155    24.349     7.329
    47   6 C        2.851     0.215    23.468     7.940
    48   7 N        2.668    -0.198    25.309     7.472
    49   7 N        1.857    -0.238    27.081     7.713
    50   6 C        3.073     0.137    24.935     8.187
    51   1 H        0.925     0.108     1.714     2.047
    52   1 H        0.924     0.075     2.029     2.228
    53   1 H        0.924     0.113     1.674     2.023
    54   1 H        0.924     0.068     2.106     2.270
    55   1 H        0.925     0.110     1.699     2.038
    56   1 H        0.925     0.104     1.750     2.069
    57   1 H        0.924     0.119     1.625     1.993
    58   1 H        0.926     0.115     1.655     2.012
    59   1 H        0.860     0.253     0.874     1.464
    60   1 H        0.860     0.273     0.800     1.401
    61   1 H        0.860     0.284     0.763     1.368
    62  15 P        3.563     0.588   136.662    21.000
    63   8 O        0.808    -0.532    24.544     6.641
    64   8 O        0.808    -0.506    23.949     6.560
    65   8 O        1.658    -0.320    19.356     5.939
    66   6 C        3.881     0.078    19.244     6.237
    67   6 C        3.801     0.088    19.126     6.227
    68   8 O        1.705    -0.263    18.355     5.784
    69   6 C        4.007     0.124    18.492     6.109
    70   8 O        1.662    -0.305    19.087     5.898
    71   6 C        3.825    -0.100    22.390     6.733
    72   6 C        3.737     0.154    18.184     6.085
    73   7 N        2.738    -0.052    22.249     7.005
    74   6 C        2.765     0.320    21.561     7.604
    75   8 O        0.868    -0.483    23.399     6.486
    76   7 N        1.869    -0.300    28.624     7.931
    77   6 C        2.902     0.177    24.211     8.068
    78   7 N        2.673    -0.137    23.974     7.272
    79   6 C        2.903    -0.071    29.772     8.947
    80   6 C        2.872     0.046    26.972     8.513
    81   1 H        0.925     0.083     1.951     2.184
    82   1 H        0.925     0.047     2.352     2.398
    83   1 H        0.924     0.087     1.911     2.162
    84   1 H        0.924     0.060     2.204     2.322
    85   1 H        0.924     0.095     1.828     2.114
    86   1 H        0.925     0.097     1.817     2.108
    87   1 H        0.925     0.124     1.578     1.965
    88   1 H        0.860     0.290     0.745     1.352
    89   1 H        0.860     0.303     0.704     1.314
    90   1 H        0.926     0.165     1.293     1.778
    91   1 H        0.926     0.112     1.682     2.028
    92  15 P        3.695     0.608   135.976    20.947
    93   8 O        0.808    -0.538    24.671     6.658
    94   8 O        0.808    -0.513    24.095     6.580
    95   8 O        1.658    -0.315    19.277     5.927
    96   6 C        3.878     0.069    19.384     6.260
    97   6 C        3.791     0.089    19.119     6.227
    98   8 O        1.704    -0.248    18.114     5.746
    99   6 C        3.957     0.108    18.739     6.151
   100   8 O        1.644    -0.319    19.349     5.938
   101   6 C        3.827    -0.093    22.250     6.712
   102   6 C        3.739     0.150    18.239     6.094
   103   7 N        2.829    -0.014    21.518     6.889
   104   6 C        3.066     0.108    25.559     8.290
   105   7 N        1.889    -0.134    24.690     7.366
   106   6 C        3.153     0.022    27.238     8.535
   107   6 C        2.783     0.269    22.454     7.761
   108   8 O        0.866    -0.362    20.941     6.136
   109   7 N        2.716    -0.161    24.482     7.349
   110   6 C        2.812     0.204    23.676     7.972
   111   7 N        2.651    -0.189    25.111     7.442
   112   7 N        1.839    -0.228    26.824     7.675
   113   6 C        3.043     0.117    25.391     8.265
   114   1 H        0.924     0.097     1.809     2.103
   115   1 H        0.924     0.069     2.094     2.263
   116   1 H        0.925     0.110     1.698     2.038
   117   1 H        0.924     0.070     2.082     2.256
   118   1 H        0.925     0.111     1.684     2.029
   119   1 H        0.925     0.098     1.800     2.098
   120   1 H        0.924     0.117     1.636     2.000
   121   1 H        0.926     0.121     1.607     1.982
   122   1 H        0.860     0.264     0.830     1.427
   123   1 H        0.860     0.274     0.797     1.398
   124   1 H        0.860     0.283     0.765     1.370
   125  15 P        3.706     0.590   136.612    20.996
   126   8 O        0.808    -0.550    24.952     6.696
   127   8 O        0.808    -0.529    24.463     6.630
   128   8 O        1.659    -0.312    19.216     5.918
   129   6 C        3.949     0.093    18.984     6.191
   130   6 C        3.838     0.094    19.005     6.202
   131   8 O        1.711    -0.281    18.669     5.834
   132   6 C        4.029     0.123    18.501     6.110
   133   8 O        1.660    -0.328    19.513     5.963
   134   6 C        3.814    -0.098    22.353     6.729
   135   6 C        3.795     0.153    18.139     6.065
   136   7 N        2.874    -0.031    21.844     6.942
   137   6 C        3.152     0.102    25.468     8.254
   138   7 N        1.851    -0.182    25.756     7.522
   139   6 C        3.278     0.009    26.410     8.273
   140   6 C        2.897     0.157    24.611     8.134
   141   7 N        2.654    -0.181    24.924     7.415
   142   7 N        1.852    -0.256    27.522     7.775
   143   6 C        3.013     0.131    25.109     8.220
   144   7 N        1.824    -0.193    26.006     7.556
   145   6 C        3.202     0.109    25.071     8.158
   146   1 H        0.924     0.072     2.065     2.247
   147   1 H        0.925     0.034     2.533     2.489
   148   1 H        0.924     0.065     2.139     2.287
   149   1 H        0.924     0.048     2.340     2.392
   150   1 H        0.924     0.104     1.749     2.068
   151   1 H        0.925     0.090     1.878     2.143
   152   1 H        0.924     0.095     1.827     2.114
   153   1 H        0.926     0.097     1.817     2.108
   154   1 H        0.860     0.298     0.720     1.330
   155   1 H        0.860     0.292     0.737     1.345
   156   1 H        0.926     0.094     1.841     2.122
   157  15 P        3.693     0.595   136.441    20.983
   158   8 O        0.808    -0.548    24.906     6.690
   159   8 O        0.808    -0.528    24.444     6.627
   160   8 O        1.654    -0.322    19.400     5.946
   161   6 C        3.872     0.076    19.272     6.242
   162   6 C        3.813     0.097    18.977     6.200
   163   8 O        1.707    -0.280    18.639     5.829
   164   6 C        3.875     0.110    18.743     6.156
   165   8 O        1.655    -0.338    19.679     5.989
   166   6 C        3.811    -0.099    22.386     6.735
   167   6 C        3.733     0.167    17.997     6.055
   168   7 N        2.820    -0.060    22.394     7.028
   169   6 C        3.194     0.107    25.160     8.179
   170   7 N        1.891    -0.147    24.970     7.408
   171   6 C        3.224    -0.001    27.282     8.488
   172   6 C        2.880     0.162    24.498     8.114
   173   7 N        2.662    -0.175    24.801     7.396
   174   7 N        1.863    -0.242    27.178     7.727
   175   6 C        2.984     0.136    25.033     8.207
   176   7 N        1.828    -0.187    25.874     7.538
   177   6 C        3.230     0.125    24.523     8.042
   178   1 H        0.925     0.079     1.986     2.204
   179   1 H        0.924     0.051     2.302     2.373
   180   1 H        0.924     0.071     2.071     2.251
   181   1 H        0.925     0.057     2.239     2.340
   182   1 H        0.924     0.093     1.846     2.125
   183   1 H        0.925     0.094     1.842     2.122
   184   1 H        0.924     0.086     1.922     2.168
   185   1 H        0.926     0.094     1.842     2.122
   186   1 H        0.861     0.305     0.700     1.310
   187   1 H        0.860     0.293     0.734     1.342
   188   1 H        0.926     0.092     1.858     2.131
   189  15 P        3.605     0.566   137.485    21.063
   190   8 O        0.808    -0.548    24.898     6.689
   191   8 O        0.808    -0.528    24.445     6.628
   192   8 O        1.652    -0.333    19.605     5.977
   193   6 C        3.878     0.074    19.300     6.246
   194   6 C        3.817     0.094    19.014     6.206
   195   8 O        1.709    -0.294    18.879     5.866
   196   6 C        3.883     0.124    18.517     6.118
   197   8 O        1.660    -0.342    19.760     6.001
   198   6 C        3.823    -0.098    22.353     6.728
   199   6 C        3.755     0.165    17.992     6.048
   200   7 N        2.793    -0.039    21.999     6.966
   201   6 C        3.385     0.100    22.521     7.377
   202   7 N        1.871    -0.160    25.252     7.449
   203   6 C        3.259     0.007    26.699     8.350
   204   6 C        2.936     0.155    24.644     8.142
   205   7 N        2.711    -0.169    24.647     7.373
   206   7 N        1.910    -0.249    27.335     7.752
   207   6 C        2.982     0.126    25.240     8.241
   208   7 N        1.838    -0.185    25.816     7.530
   209   6 C        3.351     0.127    22.697     7.505
   210   1 H        0.925     0.081     1.968     2.194
   211   1 H        0.924     0.048     2.344     2.394
   212   1 H        0.924     0.066     2.136     2.285
   213   1 H        0.925     0.048     2.347     2.396
   214   1 H        0.924     0.098     1.805     2.101
   215   1 H        0.925     0.094     1.841     2.122
   216   1 H        0.925     0.099     1.796     2.096
   217   1 H        0.926     0.093     1.851     2.128
   218   1 H        0.860     0.265     0.828     1.426
   219   1 H        0.860     0.295     0.727     1.335
   220   1 H        0.926     0.109     1.706     2.043
   221  15 P        3.546     0.587   136.723    21.004
   222   8 O        0.808    -0.531    24.501     6.635
   223   8 O        0.808    -0.504    23.896     6.553
   224   8 O        1.652    -0.326    19.467     5.956
   225   6 C        3.833     0.069    19.408     6.268
   226   6 C        3.801     0.088    19.132     6.227
   227   8 O        1.714    -0.255    18.226     5.764
   228   6 C        3.933     0.119    18.579     6.125
   229   8 O        1.656    -0.336    19.647     5.984
   230   6 C        3.842    -0.092    22.217     6.705
   231   6 C        3.760     0.158    18.090     6.063
   232   7 N        2.734    -0.030    21.820     6.938
   233   6 C        2.722     0.304    21.841     7.651
   234   8 O        0.862    -0.428    22.245     6.324
   235   7 N        2.721    -0.143    24.100     7.291
   236   6 C        2.772     0.276    22.337     7.741
   237   8 O        0.871    -0.350    20.693     6.099
   238   6 C        2.956    -0.019    28.483     8.754
   239   6 C        3.754    -0.152    23.498     6.912
   240   6 C        2.852     0.020    27.563     8.605
   241   1 H        0.924     0.085     1.932     2.174
   242   1 H        0.925     0.052     2.291     2.367
   243   1 H        0.924     0.082     1.959     2.189
   244   1 H        0.924     0.052     2.294     2.368
   245   1 H        0.924     0.113     1.672     2.022
   246   1 H        0.924     0.099     1.792     2.093
   247   1 H        0.925     0.112     1.677     2.025
   248   1 H        0.860     0.283     0.767     1.372
   249   1 H        0.925     0.182     1.196     1.711
   250   1 H        0.924     0.084     1.934     2.175
   251   1 H        0.925     0.141     1.457     1.888
   252   1 H        0.926     0.133     1.512     1.923
   253  15 P        3.588     0.581   136.934    21.021
   254   8 O        0.808    -0.540    24.719     6.665
   255   8 O        0.808    -0.511    24.046     6.573
   256   8 O        1.658    -0.309    19.167     5.910
   257   6 C        3.861     0.082    19.188     6.229
   258   6 C        3.753     0.079    19.315     6.267
   259   8 O        1.699    -0.275    18.569     5.818
   260   6 C        4.021     0.118    18.591     6.125
   261   8 O        1.661    -0.305    19.103     5.900
   262   6 C        3.797    -0.114    22.674     6.780
   263   6 C        3.707     0.153    18.259     6.108
   264   7 N        2.727    -0.039    21.992     6.965
   265   6 C        2.693     0.305    21.823     7.645
   266   8 O        0.859    -0.409    21.855     6.268
   267   7 N        2.689    -0.168    24.637     7.372
   268   6 C        2.756     0.266    22.513     7.770
   269   8 O        0.858    -0.316    20.070     6.006
   270   6 C        2.937    -0.003    28.102     8.694
   271   6 C        3.750    -0.153    23.528     6.918
   272   6 C        2.843     0.023    27.474     8.590
   273   1 H        0.924     0.078     2.002     2.212
   274   1 H        0.924     0.051     2.307     2.375
   275   1 H        0.924     0.070     2.082     2.257
   276   1 H        0.924     0.073     2.054     2.241
   277   1 H        0.925     0.126     1.569     1.959
   278   1 H        0.926     0.101     1.777     2.084
   279   1 H        0.924     0.108     1.712     2.046
   280   1 H        0.860     0.269     0.812     1.412
   281   1 H        0.924     0.185     1.179     1.698
   282   1 H        0.924     0.097     1.816     2.107
   283   1 H        0.925     0.153     1.372     1.832
   284   1 H        0.926     0.128     1.550     1.947
[...]
   616   7 N    3.467 --   615 C    1.470   630 H    0.890   629 H    0.879
   617   7 N    3.022 --   618 C    1.502   615 C    1.217
   618   6 C    3.927 --   617 N    1.502   619 N    1.350   631 H    0.936
   619   7 N    2.937 --   618 C    1.350   620 C    1.320
   620   6 C    3.901 --   619 N    1.320   614 C    1.256   611 N    1.112
   621   1 H    0.990 --   604 C    0.961
   622   1 H    0.995 --   604 C    0.969
   623   1 H    0.985 --   605 C    0.950
   624   1 H    0.994 --   607 C    0.961
   625   1 H    0.988 --   609 C    0.964
   626   1 H    0.986 --   609 C    0.964
   627   1 H    0.980 --   610 C    0.936
   628   1 H    0.987 --   612 C    0.949
   629   1 H    0.908 --   616 N    0.879
   630   1 H    0.910 --   616 N    0.890
   631   1 H    0.985 --   618 C    0.936
   632  15 P    5.597 --   634 O    1.690   633 O    1.677   635 O    1.095
                           608 O    1.076
   633   8 O    1.866 --   632 P    1.677
   634   8 O    1.873 --   632 P    1.690
   635   8 O    2.270 --   632 P    1.095   636 C    0.975
   636   6 C    3.923 --   635 O    0.975   653 H    0.964   654 H    0.963
                           637 C    0.961
   637   6 C    3.944 --   638 O    1.000   636 C    0.961   639 C    0.960
                           655 H    0.949
   638   8 O    2.075 --   637 C    1.000   642 C    0.949
   639   6 C    3.926 --   641 C    0.968   656 H    0.962   637 C    0.960
                           640 O    0.958
   640   8 O    2.230 --   664 P    1.063   639 C    0.958
   641   6 C    3.963 --   642 C    0.971   639 C    0.968   657 H    0.966
                           658 H    0.962
   642   6 C    3.916 --   643 N    0.974   641 C    0.971   638 O    0.949
                           659 H    0.945
   643   7 N    3.619 --   644 C    1.287   652 C    1.115   642 C    0.974
   644   6 C    3.918 --   645 N    1.515   643 N    1.287   660 H    0.951
   645   7 N    2.974 --   644 C    1.515   646 C    1.219
   646   6 C    3.884 --   652 C    1.285   645 N    1.219   647 C    1.153
   647   6 C    3.972 --   648 N    1.399   649 N    1.279   646 C    1.153
   648   7 N    3.433 --   647 C    1.399   662 H    0.904   661 H    0.873
   649   7 N    3.045 --   650 C    1.482   647 C    1.279
   650   6 C    3.921 --   649 N    1.482   651 N    1.359   663 H    0.942
   651   7 N    2.929 --   650 C    1.359   652 C    1.297
   652   6 C    3.905 --   651 N    1.297   646 C    1.285   643 N    1.115
   653   1 H    0.994 --   636 C    0.964
   654   1 H    0.990 --   636 C    0.963
   655   1 H    0.987 --   637 C    0.949
   656   1 H    0.995 --   639 C    0.962
   657   1 H    0.989 --   641 C    0.966
   658   1 H    0.990 --   641 C    0.962
   659   1 H    0.982 --   642 C    0.945
   660   1 H    0.990 --   644 C    0.951
   661   1 H    0.912 --   648 N    0.873
   662   1 H    0.921 --   648 N    0.904
   663   1 H    0.984 --   650 C    0.942
   664  15 P    5.618 --   666 O    1.743   665 O    1.638   667 O    1.125
                           640 O    1.063
   665   8 O    1.811 --   664 P    1.638
   666   8 O    1.924 --   664 P    1.743
   667   8 O    2.266 --   664 P    1.125   668 C    0.942
   668   6 C    3.917 --   669 C    0.972   685 H    0.968   684 H    0.964
                           667 O    0.942
   669   6 C    3.939 --   668 C    0.972   671 C    0.967   670 O    0.966
                           686 H    0.945
   670   8 O    2.143 --   674 C    1.032   669 C    0.966
   671   6 C    3.916 --   673 C    0.996   669 C    0.967   687 H    0.958
                           672 O    0.920
   672   8 O    2.248 --   696 P    1.112   671 C    0.920
   673   6 C    3.931 --   671 C    0.996   688 H    0.964   689 H    0.962
                           674 C    0.923
   674   6 C    3.903 --   670 O    1.032   675 N    0.950   673 C    0.923
                           690 H    0.921
   675   7 N    3.472 --   683 C    1.191   676 C    1.049   674 C    0.950
                           677 O    0.104
   676   6 C    3.952 --   677 O    1.708   678 N    1.134   675 N    1.049
   677   8 O    2.029 --   676 C    1.708   678 N    0.134   675 N    0.104
   678   7 N    3.520 --   679 C    1.161   676 C    1.134   691 H    0.863
                           680 O    0.147   677 O    0.134
   679   6 C    3.956 --   680 O    1.712   678 N    1.161   681 C    1.006
   680   8 O    2.015 --   679 C    1.712   678 N    0.147
   681   6 C    3.816 --   683 C    1.545   682 C    1.080   679 C    1.006
   682   6 C    3.890 --   681 C    1.080   692 H    0.978   693 H    0.889
                           694 H    0.888
   683   6 C    3.850 --   681 C    1.545   675 N    1.191   695 H    0.946
   684   1 H    0.992 --   668 C    0.964
   685   1 H    0.994 --   668 C    0.968
   686   1 H    0.981 --   669 C    0.945
   687   1 H    0.992 --   671 C    0.958
   688   1 H    0.987 --   673 C    0.964
   689   1 H    0.989 --   673 C    0.962
   690   1 H    0.964 --   674 C    0.921
   691   1 H    0.925 --   678 N    0.863
   692   1 H    0.992 --   682 C    0.978
   693   1 H    0.926 --   682 C    0.889
   694   1 H    0.923 --   682 C    0.888
   695   1 H    0.985 --   683 C    0.946
   696  15 P    5.616 --   698 O    1.690   697 O    1.675   672 O    1.112
                           699 O    1.080
   697   8 O    1.833 --   696 P    1.675
   698   8 O    1.856 --   696 P    1.690
   699   8 O    2.259 --   696 P    1.080   700 C    0.979
   700   6 C    3.919 --   699 O    0.979   716 H    0.962   717 H    0.962
                           701 C    0.953
   701   6 C    3.940 --   702 O    0.994   703 C    0.964   700 C    0.953
                           718 H    0.949
   702   8 O    2.049 --   701 C    0.994   706 C    0.937
   703   6 C    3.914 --   705 C    0.998   701 C    0.964   719 H    0.960
                           704 O    0.912
   704   8 O    2.245 --   728 P    1.123   703 C    0.912
   705   6 C    3.953 --   703 C    0.998   706 C    0.962   721 H    0.960
                           720 H    0.957
   706   6 C    3.913 --   707 N    0.987   705 C    0.962   722 H    0.946
                           702 O    0.937
   707   7 N    3.533 --   715 C    1.204   708 C    1.075   706 C    0.987
   708   6 C    3.957 --   709 O    1.625   710 N    1.190   707 N    1.075
   709   8 O    1.948 --   708 C    1.625   710 N    0.139
   710   7 N    3.507 --   708 C    1.190   711 C    1.081   723 H    0.864
                           712 O    0.142   709 O    0.139
   711   6 C    3.949 --   712 O    1.687   713 C    1.090   710 N    1.081
   712   8 O    2.072 --   711 C    1.687   710 N    0.142
   713   6 C    3.849 --   715 C    1.529   711 C    1.090   714 C    1.045
   714   6 C    3.911 --   713 C    1.045   726 H    0.976   724 H    0.915
                           725 H    0.913
   715   6 C    3.867 --   713 C    1.529   707 N    1.204   727 H    0.944
   716   1 H    0.994 --   700 C    0.962
   717   1 H    0.987 --   700 C    0.962
   718   1 H    0.983 --   701 C    0.949
   719   1 H    0.992 --   703 C    0.960
   720   1 H    0.985 --   705 C    0.957
   721   1 H    0.989 --   705 C    0.960
   722   1 H    0.982 --   706 C    0.946
   723   1 H    0.931 --   710 N    0.864
   724   1 H    0.951 --   714 C    0.915
   725   1 H    0.945 --   714 C    0.913
   726   1 H    0.989 --   714 C    0.976
   727   1 H    0.981 --   715 C    0.944
   728  15 P    5.652 --   730 O    1.700   729 O    1.678   704 O    1.123
                           731 O    1.103
   729   8 O    1.857 --   728 P    1.678
   730   8 O    1.878 --   728 P    1.700
   731   8 O    2.241 --   728 P    1.103   732 C    0.932
   732   6 C    3.936 --   733 C    1.006   749 H    0.969   748 H    0.959
                           731 O    0.932
   733   6 C    3.961 --   732 C    1.006   734 O    0.982   735 C    0.960
                           750 H    0.944
   734   8 O    2.096 --   733 C    0.982   738 C    0.979
   735   6 C    3.897 --   737 C    0.979   751 H    0.964   733 C    0.960
                           736 O    0.901
   736   8 O    2.342 --   760 P    1.232   735 C    0.901
   737   6 C    3.954 --   735 C    0.979   752 H    0.966   738 C    0.961
                           753 H    0.960
   738   6 C    3.918 --   734 O    0.979   739 N    0.967   737 C    0.961
                           754 H    0.935
   739   7 N    3.530 --   747 C    1.249   740 C    1.050   738 C    0.967
   740   6 C    3.954 --   741 O    1.606   742 N    1.221   739 N    1.050
   741   8 O    1.930 --   740 C    1.606   742 N    0.143
   742   7 N    3.514 --   740 C    1.221   743 C    1.087   755 H    0.826
                           741 O    0.143   744 O    0.133
   743   6 C    3.945 --   744 O    1.698   742 N    1.087   745 C    1.068
   744   8 O    2.052 --   743 C    1.698   742 N    0.133
   745   6 C    3.816 --   747 C    1.511   743 C    1.068   746 C    1.048
   746   6 C    3.884 --   745 C    1.048   756 H    0.972   757 H    0.921
                           758 H    0.880
   747   6 C    3.862 --   745 C    1.511   739 N    1.249   759 H    0.938
   748   1 H    0.993 --   732 C    0.959
   749   1 H    0.997 --   732 C    0.969
   750   1 H    0.991 --   733 C    0.944
   751   1 H    0.995 --   735 C    0.964
   752   1 H    0.988 --   737 C    0.966
   753   1 H    0.991 --   737 C    0.960
   754   1 H    0.976 --   738 C    0.935
   755   1 H    0.924 --   742 N    0.826
   756   1 H    0.986 --   746 C    0.972
   757   1 H    0.950 --   746 C    0.921
   758   1 H    0.915 --   746 C    0.880
   759   1 H    0.978 --   747 C    0.938
   760  15 P    5.679 --   761 O    1.712   762 O    1.654   736 O    1.232
                           763 O    1.023
   761   8 O    1.889 --   760 P    1.712
   762   8 O    1.827 --   760 P    1.654
   763   8 O    2.208 --   760 P    1.023   764 C    0.978
   764   6 C    3.936 --   763 O    0.978   779 H    0.968   780 H    0.968
                           765 C    0.960
   765   6 C    3.940 --   766 O    1.002   764 C    0.960   781 H    0.945
                           767 C    0.936
   766   8 O    2.132 --   765 C    1.002   770 C    0.985
   767   6 C    3.912 --   769 C    0.989   768 O    0.964   782 H    0.954
                           765 C    0.936
   768   8 O    2.232 --   790 P    1.047   767 C    0.964
   769   6 C    3.937 --   767 C    0.989   784 H    0.968   783 H    0.964
                           770 C    0.924
   770   6 C    3.899 --   771 N    0.986   766 O    0.985   769 C    0.924
                           785 H    0.914
   771   7 N    3.481 --   778 C    1.238   770 C    0.986   772 C    0.977
   772   6 C    3.935 --   773 O    1.617   774 N    1.260   771 N    0.977
   773   8 O    1.986 --   772 C    1.617   774 N    0.140
   774   7 N    3.001 --   775 C    1.285   772 C    1.260   773 O    0.140
                           776 N    0.110
   775   6 C    3.968 --   776 N    1.515   774 N    1.285   777 C    1.086
   776   7 N    3.505 --   775 C    1.515   787 H    0.885   786 H    0.872
                           774 N    0.110
   777   6 C    3.810 --   778 C    1.612   775 C    1.086   788 H    0.942
   778   6 C    3.929 --   777 C    1.612   771 N    1.238   789 H    0.945
   779   1 H    0.996 --   764 C    0.968
   780   1 H    0.993 --   764 C    0.968
   781   1 H    0.979 --   765 C    0.945
   782   1 H    0.996 --   767 C    0.954
   783   1 H    0.991 --   769 C    0.964
   784   1 H    0.991 --   769 C    0.968
   785   1 H    0.949 --   770 C    0.914
   786   1 H    0.913 --   776 N    0.872
   787   1 H    0.910 --   776 N    0.885
   788   1 H    0.973 --   777 C    0.942
   789   1 H    0.984 --   778 C    0.945
   790  15 P    5.647 --   791 O    1.755   792 O    1.670   793 O    1.107
                           768 O    1.047
   791   8 O    1.933 --   790 P    1.755
   792   8 O    1.854 --   790 P    1.670
   793   8 O    2.269 --   790 P    1.107   794 C    0.958
   794   6 C    3.920 --   813 H    0.969   795 C    0.964   812 H    0.960
                           793 O    0.958
   795   6 C    3.944 --   796 O    0.997   794 C    0.964   797 C    0.954
                           814 H    0.948
   796   8 O    2.067 --   795 C    0.997   800 C    0.939
   797   6 C    3.934 --   799 C    0.994   815 H    0.962   795 C    0.954
                           798 O    0.950
   798   8 O    2.266 --   823 P    1.101   797 C    0.950
   799   6 C    3.982 --   800 C    0.995   797 C    0.994   816 H    0.961
                           817 H    0.959
   800   6 C    3.924 --   799 C    0.995   801 N    0.969   818 H    0.942
                           796 O    0.939
   801   7 N    3.600 --   802 C    1.254   811 C    1.117   800 C    0.969
   802   6 C    3.869 --   803 N    1.550   801 N    1.254   819 H    0.952
   803   7 N    2.968 --   802 C    1.550   804 C    1.219
   804   6 C    3.830 --   811 C    1.300   803 N    1.219   805 C    1.083
   805   6 C    3.957 --   806 O    1.679   807 N    1.108   804 C    1.083
   806   8 O    1.981 --   805 C    1.679   807 N    0.131
   807   7 N    3.529 --   808 C    1.220   805 C    1.108   820 H    0.861
                           806 O    0.131
   808   6 C    3.963 --   809 N    1.376   810 N    1.287   807 N    1.220
   809   7 N    3.401 --   808 C    1.376   822 H    0.907   821 H    0.866
   810   7 N    2.866 --   811 C    1.307   808 C    1.287
   811   6 C    3.902 --   810 N    1.307   804 C    1.300   801 N    1.117
   812   1 H    0.993 --   794 C    0.960
   813   1 H    0.997 --   794 C    0.969
   814   1 H    0.984 --   795 C    0.948
   815   1 H    0.998 --   797 C    0.962
   816   1 H    0.992 --   799 C    0.961
   817   1 H    0.992 --   799 C    0.959
   818   1 H    0.982 --   800 C    0.942
   819   1 H    0.991 --   802 C    0.952
   820   1 H    0.920 --   807 N    0.861
   821   1 H    0.921 --   809 N    0.866
   822   1 H    0.925 --   809 N    0.907
   823  15 P    5.640 --   825 O    1.631   824 O    1.625   826 O    1.232
                           798 O    1.101
   824   8 O    1.790 --   823 P    1.625
   825   8 O    1.792 --   823 P    1.631
   826   8 O    2.358 --   823 P    1.232   827 C    0.930
   827   6 C    3.904 --   828 C    0.974   843 H    0.966   842 H    0.959
                           826 O    0.930
   828   6 C    3.949 --   830 C    0.988   827 C    0.974   829 O    0.968
                           844 H    0.945
   829   8 O    2.061 --   833 C    0.969   828 C    0.968
   830   6 C    3.926 --   828 C    0.988   832 C    0.984   845 H    0.962
                           831 O    0.910
   831   8 O    2.240 --   853 P    1.119   830 C    0.910
   832   6 C    3.963 --   830 C    0.984   833 C    0.968   847 H    0.965
                           846 H    0.965
   833   6 C    3.914 --   829 O    0.969   832 C    0.968   834 N    0.967
                           848 H    0.938
   834   7 N    3.499 --   841 C    1.188   835 C    1.052   833 C    0.967
   835   6 C    3.947 --   836 O    1.566   837 N    1.241   834 N    1.052
   836   8 O    1.936 --   835 C    1.566   837 N    0.111
   837   7 N    3.022 --   838 C    1.364   835 C    1.241   839 N    0.118
                           836 O    0.111
   838   6 C    3.975 --   839 N    1.388   837 N    1.364   840 C    1.128
   839   7 N    3.442 --   838 C    1.388   850 H    0.911   849 H    0.863
                           837 N    0.118
   840   6 C    3.898 --   841 C    1.658   838 C    1.128   851 H    0.952
   841   6 C    3.942 --   840 C    1.658   834 N    1.188   852 H    0.954
   842   1 H    0.989 --   827 C    0.959
   843   1 H    0.995 --   827 C    0.966
   844   1 H    0.980 --   828 C    0.945
   845   1 H    0.996 --   830 C    0.962
   846   1 H    0.990 --   832 C    0.965
   847   1 H    0.993 --   832 C    0.965
   848   1 H    0.978 --   833 C    0.938
   849   1 H    0.930 --   839 N    0.863
   850   1 H    0.931 --   839 N    0.911
   851   1 H    0.987 --   840 C    0.952
   852   1 H    0.988 --   841 C    0.954
   853  15 P    5.645 --   855 O    1.710   854 O    1.694   831 O    1.119
                           856 O    1.072
   854   8 O    1.877 --   853 P    1.694
   855   8 O    1.895 --   853 P    1.710
   856   8 O    2.227 --   853 P    1.072   857 C    0.965
   857   6 C    3.895 --   858 C    0.966   856 O    0.965   876 H    0.953
                           875 H    0.950
   858   6 C    3.901 --   857 C    0.966   859 O    0.957   860 C    0.957
                           877 H    0.944
   859   8 O    2.047 --   863 C    0.967   858 C    0.957
   860   6 C    3.944 --   861 O    1.003   862 C    0.976   878 H    0.961
                           858 C    0.957
   861   8 O    1.920 --   860 C    1.003   879 H    0.849
   862   6 C    3.953 --   863 C    0.977   860 C    0.976   880 H    0.965
                           881 H    0.965
   863   6 C    3.909 --   862 C    0.977   859 O    0.967   864 N    0.959
                           882 H    0.935
   864   7 N    3.615 --   865 C    1.222   874 C    1.178   863 C    0.959
   865   6 C    3.866 --   866 N    1.572   864 N    1.222   883 H    0.954
   866   7 N    2.979 --   865 C    1.572   867 C    1.214
   867   6 C    3.816 --   874 C    1.302   866 N    1.214   868 C    1.098
   868   6 C    3.949 --   869 O    1.634   870 N    1.126   867 C    1.098
   869   8 O    1.944 --   868 C    1.634   870 N    0.125
   870   7 N    3.526 --   871 C    1.209   868 C    1.126   884 H    0.849
                           869 O    0.125
   871   6 C    3.961 --   872 N    1.350   873 N    1.332   870 N    1.209
   872   7 N    3.344 --   871 C    1.350   886 H    0.898   885 H    0.882
   873   7 N    2.835 --   871 C    1.332   874 C    1.253
   874   6 C    3.910 --   867 C    1.302   873 N    1.253   864 N    1.178
   875   1 H    0.985 --   857 C    0.950
   876   1 H    0.982 --   857 C    0.953
   877   1 H    0.980 --   858 C    0.944
   878   1 H    0.994 --   860 C    0.961
   879   1 H    0.866 --   861 O    0.849
   880   1 H    0.986 --   862 C    0.965
   881   1 H    0.988 --   862 C    0.965
   882   1 H    0.967 --   863 C    0.935
   883   1 H    0.990 --   865 C    0.954
   884   1 H    0.926 --   870 N    0.849
   885   1 H    0.928 --   872 N    0.882
   886   1 H    0.914 --   872 N    0.898
 ---------------------------------------------------------------------------

Topologies differ in total number of bonds
Writing topology from bond orders to xtbtopo.mol

molecular dipole:
                 x           y           z       tot (Debye)
 q only:      -11.146     -11.058       4.497
   full:      -10.722     -11.101       4.283      40.710
molecular quadrupole (traceless):
                xx          xy          yy          xz          yz          zz
 q only:    -4157.169   -4265.795    3228.000    -912.506   -4111.067     929.169
  q+dip:    -3951.819   -3961.542    3150.525    -849.127   -3908.488     801.294
   full:    -3979.405   -3965.195    3203.149    -851.093   -3923.062     776.256


           -------------------------------------------------
          | TOTAL ENERGY            -1791.244301755058 Eh   |
          | GRADIENT NORM               0.933600498542 Eh/α |
          | HOMO-LUMO GAP               0.001115827532 eV   |
           -------------------------------------------------

------------------------------------------------------------------------
 * finished run on 2023/03/21 at 23:56:33.093     
------------------------------------------------------------------------
 total:
 * wall-time:     0 d,  0 h,  1 min, 20.711 sec
 *  cpu-time:     0 d,  0 h, 13 min,  0.736 sec
 * ratio c/w:     9.673 speedup
 SCF:
 * wall-time:     0 d,  0 h,  1 min, 18.530 sec
 *  cpu-time:     0 d,  0 h, 12 min, 52.512 sec
 * ratio c/w:     9.837 speedup

