      -----------------------------------------------------------      
     |                   =====================                   |     
     |                           x T B                           |     
     |                   =====================                   |     
     |                         S. Grimme                         |     
     |          Mulliken Center for Theoretical Chemistry        |     
     |                    University of Bonn                     |     
      -----------------------------------------------------------      

   * xtb version 6.5.1 (579679a) compiled by 'ehlert@majestix' on 2022-07-11

   xtb is free software: you can redistribute it and/or modify it under
   the terms of the GNU Lesser General Public License as published by
   the Free Software Foundation, either version 3 of the License, or
   (at your option) any later version.
   
   xtb is distributed in the hope that it will be useful,
   but WITHOUT ANY WARRANTY; without even the implied warranty of
   MERCHANTABILITY or FITNESS FOR A PARTICULAR PURPOSE.  See the
   GNU Lesser General Public License for more details.
   
   Cite this work as:
   * C. Bannwarth, E. Caldeweyher, S. Ehlert, A. Hansen, P. Pracht,
     J. Seibert, S. Spicher, S. Grimme, WIREs Comput. Mol. Sci., 2020, 11,
     e01493. DOI: 10.1002/wcms.1493
   
   for GFN2-xTB:
   * C. Bannwarth, S. Ehlert and S. Grimme., J. Chem. Theory Comput., 2019,
     15, 1652-1671. DOI: 10.1021/acs.jctc.8b01176
   for GFN1-xTB:
   * S. Grimme, C. Bannwarth, P. Shushkov, J. Chem. Theory Comput., 2017,
     13, 1989-2009. DOI: 10.1021/acs.jctc.7b00118
   for GFN0-xTB:
   * P. Pracht, E. Caldeweyher, S. Ehlert, S. Grimme, ChemRxiv, 2019, preprint.
     DOI: 10.26434/chemrxiv.8326202.v1
   for GFN-FF:
   * S. Spicher and S. Grimme, Angew. Chem. Int. Ed., 2020, 59, 15665-15673.
     DOI: 10.1002/anie.202004239
   
   for ALPB and GBSA implicit solvation:
   * S. Ehlert, M. Stahn, S. Spicher, S. Grimme, J. Chem. Theory Comput.,
     2021, 17, 4250-4261. DOI: 10.1021/acs.jctc.1c00471
   
   for DFT-D4:
   * E. Caldeweyher, C. Bannwarth and S. Grimme, J. Chem. Phys., 2017,
     147, 034112. DOI: 10.1063/1.4993215
   * E. Caldeweyher, S. Ehlert, A. Hansen, H. Neugebauer, S. Spicher,
     C. Bannwarth and S. Grimme, J. Chem. Phys., 2019, 150, 154122.
     DOI: 10.1063/1.5090222
   * E. Caldeweyher, J.-M. Mewes, S. Ehlert and S. Grimme, Phys. Chem. Chem. Phys.
     2020, 22, 8499-8512. DOI: 10.1039/D0CP00502A
   
   for sTDA-xTB:
   * S. Grimme and C. Bannwarth, J. Chem. Phys., 2016, 145, 054103.
     DOI: 10.1063/1.4959605
   
   in the mass-spec context:
   * V. Asgeirsson, C. Bauer and S. Grimme, Chem. Sci., 2017, 8, 4879.
     DOI: 10.1039/c7sc00601b
   * J. Koopman and S. Grimme, ACS Omega 2019, 4, 12, 15120-15133.
     DOI: 10.1021/acsomega.9b02011
   
   for metadynamics refer to:
   * S. Grimme, J. Chem. Theory Comput., 2019, 155, 2847-2862
     DOI: 10.1021/acs.jctc.9b00143
   
   for SPH calculations refer to:
   * S. Spicher and S. Grimme, J. Chem. Theory Comput., 2021, 17, 1701-1714
     DOI: 10.1021/acs.jctc.0c01306
   
   with help from (in alphabetical order)
   P. Atkinson, C. Bannwarth, F. Bohle, G. Brandenburg, E. Caldeweyher
   M. Checinski, S. Dohm, S. Ehlert, S. Ehrlich, I. Gerasimov, C. Hölzer
   A. Katbashev, J. Koopman, C. Lavigne, S. Lehtola, F. März, M. Müller,
   F. Musil, H. Neugebauer, J. Pisarek, C. Plett, P. Pracht, F. Pultar,
   J. Seibert, P. Shushkov, S. Spicher, M. Stahn, M. Steiner, T. Strunk,
   J. Stückrath, T. Rose, and J. Unsleber
   
 * started run on 2023/03/09 at 13:52:00.972     

           -------------------------------------------------
          |                Calculation Setup                |
           -------------------------------------------------

          program call               : /N/u/schandy/BigRed3/bin/xtb-6.5.1/bin/xtb 1k2k.xyz --alpb water
          hostname                   : nid00056
          coordinate file            : 1k2k.xyz
          omp threads                :                    10

   ID    Z sym.   atoms
    1    8 O      1, 4, 6, 11, 30-32, 35, 37, 45, 63-65, 68, 70, 75, 78,
                  95-97, 100, 102, 127-129, 132, 134, 139, 157-159, 162, 164,
                  172, 190, 193, 195, 200, 219-221, 224, 226, 234, 252-254,
                  257, 259, 264, 267, 284-286, 289, 291, 316-318, 321, 323,
                  328, 346-348, 351, 353, 361
    2    6 C      2, 3, 5, 7, 8, 10, 13, 15, 16, 33, 34, 36, 38, 39, 41, 43,
                  44, 47, 50, 66, 67, 69, 71, 72, 74, 77, 79-81, 98, 99, 101,
                  103, 104, 106, 108, 109, 112, 114, 130, 131, 133, 135, 136,
                  138, 141, 143, 144, 160, 161, 163, 165, 166, 168, 170, 171,
                  174, 177, 191, 192, 194, 196, 197, 199, 202, 204, 205, 222,
                  223, 225, 227, 228, 230, 232, 233, 236, 239, 255, 256, 258,
                  260, 261, 263, 266, 268-270, 287, 288, 290, 292, 293, 295,
                  297, 298, 301, 303, 319, 320, 322, 324, 325, 327, 330, 332,
                  333, 349, 350, 352, 354, 355, 357, 359, 360, 363, 366
    3    7 N      9, 12, 14, 40, 42, 46, 48, 49, 73, 76, 105, 107, 110, 111,
                  113, 137, 140, 142, 167, 169, 173, 175, 176, 198, 201, 203,
                  229, 231, 235, 237, 238, 262, 265, 294, 296, 299, 300, 302,
                  326, 329, 331, 356, 358, 362, 364, 365
    4    1 H      17-28, 51-61, 82-93, 115-125, 145-155, 178-189, 206-217,
                  240-250, 271-282, 304-314, 334-344, 367-388
    5   15 P      29, 62, 94, 126, 156, 218, 251, 283, 315, 345

molecular fragmentation (1/2 indicates fragments):
111111111111111111111111111111111111111111111111111111111111111111111111
111111111111111111111111111111111111111111111111111111111111111111111111
111111111111111111111111111111111111111111111222222222222222222222222222
222222222222222222222222222222222222222222222222222222222222222222222222
222222222222222222222222222222222222222222222222222222222222222222222222
2222222222222222221111122222
# atoms in fragment 1/2:   194   194
 fragment masses (1/2) :     1792.21     1792.21
CMA distance (Bohr)    :  10.989
constraining FC (au)   :  0.0500

           -------------------------------------------------
          |                 G F N 2 - x T B                 |
           -------------------------------------------------

        Reference                      10.1021/acs.jctc.8b01176
      * Hamiltonian:
        H0-scaling (s, p, d)           1.850000    2.230000    2.230000
        zeta-weighting                 0.500000
      * Dispersion:
        s8                             2.700000
        a1                             0.520000
        a2                             5.000000
        s9                             5.000000
      * Repulsion:
        kExp                           1.500000    1.000000
        rExp                           1.000000
      * Coulomb:
        alpha                          2.000000
        third order                    shell-resolved
        anisotropic                    true
        a3                             3.000000
        a5                             4.000000
        cn-shift                       1.200000
        cn-exp                         4.000000
        max-rad                        5.000000

      * Solvation model:               ALPB
        Solvent                        water
        Parameter file                 internal GFN2-xTB/ALPB
        Dielectric constant                8.0200E+01
        Reference state                gsolv [1 M gas/solution]
        Free energy shift                  1.0808E-03 Eh       6.7819E-01 kcal/mol
        Temperature                        2.9815E+02 K
        Density                            1.0000E+00 kg/L
        Solvent mass                       1.8000E+01 g/mol
        Interaction kernel             P16
        Born radius scaling (c1)           1.4744E+00
        Born radii integrator          GBOBC
        Born offset                        0.0000E+00 a0       0.0000E+00 AA
        H-bond correction              true
        Ion screening                  false
        Surface tension                    1.0000E-05 Eh       1.5569E+01 dyn/cm
        Grid points                               230 per atom

          ...................................................
          :                      SETUP                      :
          :.................................................:
          :  # basis functions                1168          :
          :  # atomic orbitals                1158          :
          :  # shells                          638          :
          :  # electrons                      1300          :
          :  max. iterations                   250          :
          :  Hamiltonian                  GFN2-xTB          :
          :  restarted?                      false          :
          :  GBSA solvation                   true          :
          :  PC potential                    false          :
          :  electronic temp.          300.0000000     K    :
          :  accuracy                    1.0000000          :
          :  -> integral cutoff          0.2500000E+02      :
          :  -> integral neglect         0.1000000E-07      :
          :  -> SCF convergence          0.1000000E-05 Eh   :
          :  -> wf. convergence          0.1000000E-03 e    :
          :  Broyden damping             0.4000000          :
          ...................................................

 iter      E             dE          RMSdq      gap      omega  full diag
   1   -768.0559276 -0.768056E+03  0.582E+00    2.66       0.0  T
   2   -769.7278685 -0.167194E+01  0.333E+00    2.42       1.0  T
   3   -769.8376843 -0.109816E+00  0.139E+00    2.76       1.0  T
   4   -769.9826280 -0.144944E+00  0.600E-01    2.48       1.0  T
   5   -770.0267619 -0.441339E-01  0.292E-01    2.58       1.0  T
   6   -770.0339796 -0.721764E-02  0.124E-01    2.56       1.0  T
   7   -770.0354060 -0.142640E-02  0.621E-02    2.56       1.0  T
   8   -770.0355490 -0.143050E-03  0.331E-02    2.57       1.0  T
   9   -770.0356510 -0.102035E-03  0.142E-02    2.57       1.0  T
  10   -770.0356776 -0.265801E-04  0.549E-03    2.57       1.0  T
  11   -770.0356789 -0.124560E-05  0.264E-03    2.57       1.9  T
  12   -770.0356797 -0.795792E-06  0.103E-03    2.57       4.9  T
  13   -770.0356798 -0.952114E-07  0.494E-04    2.57      10.3  T
  14   -770.0356798 -0.163997E-07  0.215E-04    2.57      23.6  T

   *** convergence criteria satisfied after 14 iterations ***

         #    Occupation            Energy/Eh            Energy/eV
      -------------------------------------------------------------
         1        2.0000           -0.7735844             -21.0503
       ...           ...                  ...                  ...
       644        2.0000           -0.3844156             -10.4605
       645        2.0000           -0.3793539             -10.3227
       646        2.0000           -0.3782904             -10.2938
       647        2.0000           -0.3769521             -10.2574
       648        2.0000           -0.3753495             -10.2138
       649        2.0000           -0.3682234             -10.0199
       650        2.0000           -0.3672039              -9.9921 (HOMO)
       651                         -0.2728970              -7.4259 (LUMO)
       652                         -0.2721495              -7.4056
       653                         -0.2705922              -7.3632
       654                         -0.2686800              -7.3112
       655                         -0.2651549              -7.2152
       ...                                ...                  ...
      1158                          1.4287603              38.8785
      -------------------------------------------------------------
                  HL-Gap            0.0943070 Eh            2.5662 eV
             Fermi-level           -0.3200505 Eh           -8.7090 eV

 SCC (total)                   0 d,  0 h,  0 min,  2.897 sec
 SCC setup                      ...        0 min,  0.022 sec (  0.749%)
 Dispersion                     ...        0 min,  0.046 sec (  1.578%)
 classical contributions        ...        0 min,  0.001 sec (  0.047%)
 integral evaluation            ...        0 min,  0.154 sec (  5.313%)
 iterations                     ...        0 min,  2.049 sec ( 70.746%)
 molecular gradient             ...        0 min,  0.610 sec ( 21.042%)
 printout                       ...        0 min,  0.015 sec (  0.522%)

         :::::::::::::::::::::::::::::::::::::::::::::::::::::
         ::                     SUMMARY                     ::
         :::::::::::::::::::::::::::::::::::::::::::::::::::::
         :: total energy            -762.753879381463 Eh    ::
         :: total w/o Gsasa/hb      -762.630058164712 Eh    ::
         :: gradient norm              0.473924812455 Eh/a0 ::
         :: HOMO-LUMO gap              2.566223244453 eV    ::
         ::.................................................::
         :: SCC energy              -770.035679778027 Eh    ::
         :: -> isotropic ES            2.740572879748 Eh    ::
         :: -> anisotropic ES         -0.190556007726 Eh    ::
         :: -> anisotropic XC          0.144191478858 Eh    ::
         :: -> dispersion             -0.654991552532 Eh    ::
         :: -> Gsolv                  -0.558076966881 Eh    ::
         ::    -> Gelec               -0.434255750130 Eh    ::
         ::    -> Gsasa                0.027316600683 Eh    ::
         ::    -> Ghb                 -0.152218577132 Eh    ::
         ::    -> Gshift               0.001080759698 Eh    ::
         :: repulsion energy           7.231327334291 Eh    ::
         :: add. restraining           0.000000000000 Eh    ::
         :: total charge               0.000000000000 e     ::
         :::::::::::::::::::::::::::::::::::::::::::::::::::::

           -------------------------------------------------
          |                Property Printout                |
           -------------------------------------------------

    * Orbital Energies and Occupations

         #    Occupation            Energy/Eh            Energy/eV
      -------------------------------------------------------------
         1        2.0000           -0.7735844             -21.0503
       ...           ...                  ...                  ...
       638        2.0000           -0.3966915             -10.7945
       639        2.0000           -0.3916604             -10.6576
       640        2.0000           -0.3900886             -10.6149
       641        2.0000           -0.3863911             -10.5142
       642        2.0000           -0.3856431             -10.4939
       643        2.0000           -0.3845927             -10.4653
       644        2.0000           -0.3844156             -10.4605
       645        2.0000           -0.3793539             -10.3227
       646        2.0000           -0.3782904             -10.2938
       647        2.0000           -0.3769521             -10.2574
       648        2.0000           -0.3753495             -10.2138
       649        2.0000           -0.3682234             -10.0199
       650        2.0000           -0.3672039              -9.9921 (HOMO)
       651                         -0.2728970              -7.4259 (LUMO)
       652                         -0.2721495              -7.4056
       653                         -0.2705922              -7.3632
       654                         -0.2686800              -7.3112
       655                         -0.2651549              -7.2152
       656                         -0.2642481              -7.1906
       657                         -0.2627230              -7.1491
       658                         -0.2589571              -7.0466
       659                         -0.2486350              -6.7657
       660                         -0.2467607              -6.7147
       661                         -0.2427746              -6.6062
       ...                                ...                  ...
      1158                          1.4287603              38.8785
      -------------------------------------------------------------
                  HL-Gap            0.0943070 Eh            2.5662 eV
             Fermi-level           -0.3200505 Eh           -8.7090 eV

 * generalized Born model for continuum solvation

     #   Z     Born rad/Å   SASA/Å²    H-bond
     1   8 O        2.031    15.047    -0.002
     2   6 C        2.327     1.438    -0.000
     3   6 C        2.515     0.168    -0.000
     4   8 O        2.349     9.130    -0.001
     5   6 C        2.609     0.015    -0.000
     6   8 O        2.375     0.368    -0.000
     7   6 C        2.573     0.797    -0.000
     8   6 C        2.683     0.642    -0.000
     9   7 N        2.620     0.985    -0.000
    10   6 C        2.673     4.021    -0.000
    11   8 O        2.250     3.050    -0.000
    12   7 N        2.514     1.265    -0.000
    13   6 C        2.654     3.825    -0.000
    14   7 N        2.216     3.583    -0.000
    15   6 C        2.559     9.115    -0.001
    16   6 C        2.610     6.370    -0.001
    17   1 H        1.819    20.287    -0.034
    18   1 H        1.829    19.871    -0.033
    19   1 H        1.905    17.083    -0.029
    20   1 H        1.967     9.055    -0.015
    21   1 H        1.972    10.730    -0.018
    22   1 H        2.008     3.064    -0.005
    23   1 H        2.004     8.716    -0.015
    24   1 H        1.925     1.920    -0.003
    25   1 H        1.851    22.086    -0.037
    26   1 H        1.911    20.351    -0.034
    27   1 H        1.972     5.573    -0.009
    28   1 H        1.758    10.465    -0.018
    29  15 P        2.787     4.425    -0.001
    30   8 O        2.075    15.537    -0.002
    31   8 O        2.107    19.561    -0.002
    32   8 O        2.350     0.974    -0.000
    33   6 C        2.445     0.477    -0.000
    34   6 C        2.547     0.234    -0.000
    35   8 O        2.410     8.574    -0.001
    36   6 C        2.617     0.295    -0.000
    37   8 O        2.353     4.071    -0.000
    38   6 C        2.622     0.222    -0.000
    39   6 C        2.746     0.064    -0.000
    40   7 N        2.858     0.061    -0.000
    41   6 C        2.729     0.089    -0.000
    42   7 N        2.500     5.800    -0.000
    43   6 C        3.065     0.002    -0.000
    44   6 C        2.755     0.009    -0.000
    45   8 O        2.238     6.750    -0.001
    46   7 N        2.653     0.000     0.000
    47   6 C        2.802     0.000    -0.000
    48   7 N        2.280     0.443    -0.000
    49   7 N        2.612     3.014    -0.000
    50   6 C        3.185     0.690    -0.000
    51   1 H        1.892    13.611    -0.023
    52   1 H        1.867    13.255    -0.022
    53   1 H        1.909    18.285    -0.031
    54   1 H        1.953    11.506    -0.019
    55   1 H        2.016     5.590    -0.009
    56   1 H        2.026     1.899    -0.003
    57   1 H        2.063     2.891    -0.005
    58   1 H        2.016     2.400    -0.004
    59   1 H        2.334     0.000     0.000
    60   1 H        1.955     3.888    -0.007
    61   1 H        1.905    15.516    -0.026
    62  15 P        2.768     6.337    -0.001
    63   8 O        2.063    12.978    -0.001
    64   8 O        2.080    25.905    -0.003
    65   8 O        2.300     3.420    -0.000
    66   6 C        2.459     0.259    -0.000
    67   6 C        2.583     0.020    -0.000
    68   8 O        2.495     0.154    -0.000
    69   6 C        2.630     0.086    -0.000
    70   8 O        2.372     2.586    -0.000
    71   6 C        2.596     0.667    -0.000
    72   6 C        2.786     0.000    -0.000
    73   7 N        2.769     0.087    -0.000
    74   6 C        2.795     0.000    -0.000
    75   8 O        2.273     2.392    -0.000
    76   7 N        2.606     0.000    -0.000
    77   6 C        2.744     0.086    -0.000
    78   8 O        2.222     5.840    -0.001
    79   6 C        2.795     0.481    -0.000
    80   6 C        2.444     2.116    -0.000
    81   6 C        2.826     2.415    -0.000
    82   1 H        1.933     8.164    -0.014
    83   1 H        1.885    14.889    -0.025
    84   1 H        1.969    13.569    -0.023
    85   1 H        1.970     9.029    -0.015
    86   1 H        1.981    12.069    -0.020
    87   1 H        1.995     2.703    -0.005
    88   1 H        2.046     1.804    -0.003
    89   1 H        2.332     0.000     0.000
    90   1 H        1.868    22.173    -0.037
    91   1 H        1.917    10.853    -0.018
    92   1 H        1.909     8.519    -0.014
    93   1 H        2.076     2.941    -0.005
    94  15 P        2.779     4.774    -0.001
    95   8 O        2.073    26.609    -0.003
    96   8 O        2.096     8.972    -0.001
    97   8 O        2.320     0.556    -0.000
    98   6 C        2.449     0.446    -0.000
    99   6 C        2.552     0.169    -0.000
   100   8 O        2.406     5.059    -0.001
   101   6 C        2.622     0.130    -0.000
   102   8 O        2.333     5.879    -0.001
   103   6 C        2.623     0.114    -0.000
   104   6 C        2.735     0.159    -0.000
   105   7 N        2.869     0.000    -0.000
   106   6 C        2.726     0.661    -0.000
   107   7 N        2.530     7.215    -0.000
   108   6 C        3.260     0.000     0.000
   109   6 C        2.959     0.000     0.000
   110   7 N        2.335     0.173    -0.000
   111   7 N        2.693     0.000     0.000
   112   6 C        2.789     0.061    -0.000
   113   7 N        2.571     3.420    -0.000
   114   6 C        3.257     0.009    -0.000
   115   1 H        1.895    13.384    -0.022
   116   1 H        1.880    15.003    -0.025
   117   1 H        1.923    17.978    -0.030
   118   1 H        1.990     7.690    -0.013
   119   1 H        2.013     7.665    -0.013
   120   1 H        2.049     0.343    -0.001
   121   1 H        2.044     7.965    -0.013
   122   1 H        1.980     8.274    -0.014
   123   1 H        1.994     1.472    -0.002
   124   1 H        1.940    13.016    -0.022
   125   1 H        2.067     5.592    -0.009
   126  15 P        2.765     5.775    -0.001
   127   8 O        2.067    12.091    -0.001
   128   8 O        2.078    25.688    -0.003
   129   8 O        2.282     6.300    -0.001
   130   6 C        2.441     0.326    -0.000
   131   6 C        2.590     0.000    -0.000
   132   8 O        2.457     0.550    -0.000
   133   6 C        2.634     0.003    -0.000
   134   8 O        2.347     3.963    -0.000
   135   6 C        2.645     0.002    -0.000
   136   6 C        2.766     0.015    -0.000
   137   7 N        2.819     0.000     0.000
   138   6 C        2.824     0.000    -0.000
   139   8 O        2.261     4.299    -0.000
   140   7 N        2.675     0.000     0.000
   141   6 C        2.829     0.000     0.000
   142   7 N        2.308     0.299    -0.000
   143   6 C        2.702     0.186    -0.000
   144   6 C        2.770     0.190    -0.000
   145   1 H        1.920    11.388    -0.019
   146   1 H        1.878    11.472    -0.019
   147   1 H        2.025    10.691    -0.018
   148   1 H        2.014     6.332    -0.011
   149   1 H        2.086     1.975    -0.003
   150   1 H        2.015     2.225    -0.004
   151   1 H        2.001    11.501    -0.019
   152   1 H        1.989     2.062    -0.003
   153   1 H        1.915    12.980    -0.022
   154   1 H        1.970    14.717    -0.025
   155   1 H        2.044     6.513    -0.011
   156  15 P        2.772     5.121    -0.001
   157   8 O        2.072    27.052    -0.003
   158   8 O        2.088    11.598    -0.001
   159   8 O        2.315     1.109    -0.000
   160   6 C        2.436     0.404    -0.000
   161   6 C        2.511     0.149    -0.000
   162   8 O        2.392     5.688    -0.001
   163   6 C        2.469     0.537    -0.000
   164   8 O        2.046    18.637    -0.002
   165   6 C        2.477     1.445    -0.000
   166   6 C        2.650     0.298    -0.000
   167   7 N        2.701     1.463    -0.000
   168   6 C        2.611     5.888    -0.001
   169   7 N        2.410    14.839    -0.001
   170   6 C        2.902     3.413    -0.000
   171   6 C        2.658     4.129    -0.000
   172   8 O        2.181    11.303    -0.001
   173   7 N        2.555     1.930    -0.000
   174   6 C        2.702     4.152    -0.000
   175   7 N        2.267     3.309    -0.000
   176   7 N        2.500     8.208    -0.001
   177   6 C        2.995     3.574    -0.000
   178   1 H        1.895    13.923    -0.023
   179   1 H        1.871    14.910    -0.025
   180   1 H        1.905    16.247    -0.027
   181   1 H        1.902    15.203    -0.026
   182   1 H        1.759    16.891    -0.028
   183   1 H        1.932    11.545    -0.019
   184   1 H        1.883    18.407    -0.031
   185   1 H        1.975    12.568    -0.021
   186   1 H        1.936    10.347    -0.017
   187   1 H        2.244     0.052    -0.000
   188   1 H        1.985     0.943    -0.002
   189   1 H        1.897    17.725    -0.030
   190   8 O        2.034     5.667    -0.001
   191   6 C        2.329     0.661    -0.000
   192   6 C        2.516     0.160    -0.000
   193   8 O        2.351     9.285    -0.001
   194   6 C        2.608     0.008    -0.000
   195   8 O        2.375     0.470    -0.000
   196   6 C        2.575     0.765    -0.000
   197   6 C        2.686     0.586    -0.000
   198   7 N        2.622     0.998    -0.000
   199   6 C        2.673     3.837    -0.000
   200   8 O        2.251     3.154    -0.000
   201   7 N        2.515     1.187    -0.000
   202   6 C        2.654     3.831    -0.000
   203   7 N        2.215     3.952    -0.000
   204   6 C        2.559     9.025    -0.001
   205   6 C        2.611     6.328    -0.001
   206   1 H        1.821    19.733    -0.033
   207   1 H        1.829    17.978    -0.030
   208   1 H        1.905    17.027    -0.029
   209   1 H        1.966     8.236    -0.014
   210   1 H        1.973    10.900    -0.018
   211   1 H        2.010     2.920    -0.005
   212   1 H        2.004     8.610    -0.014
   213   1 H        1.927     2.059    -0.003
   214   1 H        1.855    21.281    -0.036
   215   1 H        1.911    20.268    -0.034
   216   1 H        1.972     7.599    -0.013
   217   1 H        1.714    25.346    -0.043
   218  15 P        2.787     3.744    -0.001
   219   8 O        2.075    12.455    -0.001
   220   8 O        2.107    19.050    -0.002
   221   8 O        2.350     0.962    -0.000
   222   6 C        2.445     0.542    -0.000
   223   6 C        2.548     0.262    -0.000
   224   8 O        2.410     8.430    -0.001
   225   6 C        2.617     0.276    -0.000
   226   8 O        2.353     4.592    -0.001
   227   6 C        2.622     0.190    -0.000
   228   6 C        2.747     0.081    -0.000
   229   7 N        2.857     0.049    -0.000
   230   6 C        2.729     0.096    -0.000
   231   7 N        2.500     5.927    -0.000
   232   6 C        3.065     0.001    -0.000
   233   6 C        2.754     0.001    -0.000
   234   8 O        2.238     6.492    -0.001
   235   7 N        2.652     0.000     0.000
   236   6 C        2.802     0.000    -0.000
   237   7 N        2.280     0.452    -0.000
   238   7 N        2.611     3.180    -0.000
   239   6 C        3.185     0.645    -0.000
   240   1 H        1.892    14.062    -0.024
   241   1 H        1.867    16.244    -0.027
   242   1 H        1.909    18.238    -0.031
   243   1 H        1.952    11.500    -0.019
   244   1 H        2.016     5.700    -0.010
   245   1 H        2.026     1.879    -0.003
   246   1 H        2.063     2.935    -0.005
   247   1 H        2.015     2.413    -0.004
   248   1 H        2.335     0.000     0.000
   249   1 H        1.955     3.868    -0.006
   250   1 H        1.906    15.268    -0.026
   251  15 P        2.767     8.599    -0.002
   252   8 O        2.063    16.454    -0.002
   253   8 O        2.080    26.212    -0.003
   254   8 O        2.300     3.282    -0.000
   255   6 C        2.459     0.239    -0.000
   256   6 C        2.583     0.024    -0.000
   257   8 O        2.495     0.095    -0.000
   258   6 C        2.630     0.092    -0.000
   259   8 O        2.372     2.560    -0.000
   260   6 C        2.596     0.681    -0.000
   261   6 C        2.785     0.000    -0.000
   262   7 N        2.769     0.051    -0.000
   263   6 C        2.796     0.000    -0.000
   264   8 O        2.273     2.537    -0.000
   265   7 N        2.606     0.000     0.000
   266   6 C        2.744     0.060    -0.000
   267   8 O        2.223     5.847    -0.001
   268   6 C        2.795     0.307    -0.000
   269   6 C        2.443     2.120    -0.000
   270   6 C        2.826     2.172    -0.000
   271   1 H        1.933     8.231    -0.014
   272   1 H        1.885    11.307    -0.019
   273   1 H        1.970    13.614    -0.023
   274   1 H        1.970    10.188    -0.017
   275   1 H        1.981    12.059    -0.020
   276   1 H        1.995     2.736    -0.005
   277   1 H        2.046     1.901    -0.003
   278   1 H        2.333     0.000     0.000
   279   1 H        1.908     8.548    -0.014
   280   1 H        1.868    21.776    -0.037
   281   1 H        1.916    10.871    -0.018
   282   1 H        2.076     2.948    -0.005
   283  15 P        2.779     6.097    -0.001
   284   8 O        2.073    16.462    -0.002
   285   8 O        2.096    23.016    -0.003
   286   8 O        2.320     0.532    -0.000
   287   6 C        2.449     0.421    -0.000
   288   6 C        2.552     0.157    -0.000
   289   8 O        2.406     5.109    -0.001
   290   6 C        2.622     0.117    -0.000
   291   8 O        2.333     5.837    -0.001
   292   6 C        2.623     0.070    -0.000
   293   6 C        2.735     0.170    -0.000
   294   7 N        2.870     0.000    -0.000
   295   6 C        2.726     0.581    -0.000
   296   7 N        2.531     6.651    -0.000
   297   6 C        3.260     0.000     0.000
   298   6 C        2.959     0.000     0.000
   299   7 N        2.335     0.106    -0.000
   300   7 N        2.693     0.000     0.000
   301   6 C        2.789     0.063    -0.000
   302   7 N        2.572     3.492    -0.000
   303   6 C        3.257     0.036    -0.000
   304   1 H        1.895    13.146    -0.022
   305   1 H        1.880    11.511    -0.019
   306   1 H        1.922    18.030    -0.030
   307   1 H        1.989     7.657    -0.013
   308   1 H        2.013     7.666    -0.013
   309   1 H        2.049     0.442    -0.001
   310   1 H        2.044     7.938    -0.013
   311   1 H        1.985     8.261    -0.014
   312   1 H        2.001     1.293    -0.002
   313   1 H        1.944    12.483    -0.021
   314   1 H        2.067     5.630    -0.009
   315  15 P        2.765     8.240    -0.002
   316   8 O        2.067    16.492    -0.002
   317   8 O        2.078    26.305    -0.003
   318   8 O        2.282     6.237    -0.001
   319   6 C        2.441     0.285    -0.000
   320   6 C        2.589     0.011    -0.000
   321   8 O        2.456     0.570    -0.000
   322   6 C        2.633     0.003    -0.000
   323   8 O        2.346     3.999    -0.000
   324   6 C        2.644     0.003    -0.000
   325   6 C        2.766     0.010    -0.000
   326   7 N        2.819     0.000     0.000
   327   6 C        2.824     0.000    -0.000
   328   8 O        2.262     4.279    -0.000
   329   7 N        2.675     0.000     0.000
   330   6 C        2.829     0.000     0.000
   331   7 N        2.309     0.076    -0.000
   332   6 C        2.702     0.162    -0.000
   333   6 C        2.770     0.262    -0.000
   334   1 H        1.920    10.168    -0.017
   335   1 H        1.877    11.324    -0.019
   336   1 H        2.024    10.732    -0.018
   337   1 H        2.013     7.507    -0.013
   338   1 H        2.084     2.058    -0.003
   339   1 H        2.014     2.116    -0.004
   340   1 H        2.001    11.426    -0.019
   341   1 H        1.989     1.952    -0.003
   342   1 H        1.908    14.328    -0.024
   343   1 H        1.970    14.675    -0.025
   344   1 H        2.044     6.480    -0.011
   345  15 P        2.772     5.660    -0.001
   346   8 O        2.072    16.256    -0.002
   347   8 O        2.088    22.288    -0.002
   348   8 O        2.314     1.116    -0.000
   349   6 C        2.436     0.370    -0.000
   350   6 C        2.511     0.133    -0.000
   351   8 O        2.393     5.552    -0.001
   352   6 C        2.469     0.319    -0.000
   353   8 O        2.046    16.380    -0.002
   354   6 C        2.477     1.406    -0.000
   355   6 C        2.650     0.320    -0.000
   356   7 N        2.701     1.484    -0.000
   357   6 C        2.610     5.977    -0.001
   358   7 N        2.410    14.839    -0.001
   359   6 C        2.902     3.445    -0.000
   360   6 C        2.658     4.138    -0.000
   361   8 O        2.181    11.461    -0.001
   362   7 N        2.555     1.842    -0.000
   363   6 C        2.702     4.019    -0.000
   364   7 N        2.268     3.244    -0.000
   365   7 N        2.501     7.867    -0.001
   366   6 C        2.995     3.609    -0.000
   367   1 H        1.896    13.604    -0.023
   368   1 H        1.871    10.739    -0.018
   369   1 H        1.905    15.749    -0.026
   370   1 H        1.903    14.218    -0.024
   371   1 H        1.733    21.390    -0.036
   372   1 H        1.932    11.538    -0.019
   373   1 H        1.884    19.132    -0.032
   374   1 H        1.975    14.233    -0.024
   375   1 H        1.936    10.381    -0.017
   376   1 H        2.243     0.072    -0.000
   377   1 H        1.986     0.995    -0.002
   378   1 H        1.898    17.559    -0.029
   379   1 H        1.778    16.593    -0.028
   380   1 H        1.751    26.547    -0.045
   381   1 H        1.763    24.176    -0.041
   382   1 H        1.752    26.537    -0.045
   383   1 H        1.774    18.347    -0.031
   384   1 H        1.777    17.281    -0.029
   385   1 H        1.775    17.402    -0.029
   386   1 H        1.777    17.524    -0.029
   387   1 H        1.769    18.908    -0.032
   388   1 H        1.759    23.456    -0.039

 total SASA / Å² :     2496.731

     #   Z          covCN         q      C6AA      α(0)
     1   8 O        1.654    -0.487    22.606     6.418
     2   6 C        3.674     0.054    19.893     6.392
     3   6 C        3.769     0.088    19.159     6.238
     4   8 O        1.699    -0.334    19.600     5.977
     5   6 C        3.942     0.118    18.602     6.129
     6   8 O        1.658    -0.346    19.840     6.013
     7   6 C        3.819    -0.082    22.057     6.684
     8   6 C        3.727     0.181    17.801     6.024
     9   7 N        2.742    -0.074    22.673     7.072
    10   6 C        2.732     0.334    21.331     7.561
    11   8 O        0.860    -0.555    25.038     6.709
    12   7 N        1.843    -0.358    30.172     8.141
    13   6 C        2.859     0.190    23.940     8.020
    14   7 N        2.648    -0.245    26.381     7.628
    15   6 C        2.908    -0.099    30.487     9.054
    16   6 C        2.878     0.047    26.940     8.509
    17   1 H        0.924     0.070     2.080     2.256
    18   1 H        0.924     0.075     2.034     2.230
    19   1 H        0.924     0.074     2.040     2.234
    20   1 H        0.924     0.064     2.150     2.293
    21   1 H        0.924     0.093     1.851     2.128
    22   1 H        0.924     0.059     2.211     2.326
    23   1 H        0.924     0.052     2.294     2.369
    24   1 H        0.858     0.236     0.942     1.520
    25   1 H        0.860     0.257     0.858     1.451
    26   1 H        0.925     0.105     1.737     2.061
    27   1 H        0.926     0.094     1.842     2.123
    28   1 H        0.804     0.343     0.604     1.221
    29  15 P        3.740     0.746   131.139    20.571
    30   8 O        1.614    -0.408    21.024     6.189
    31   8 O        0.808    -0.608    26.345     6.880
    32   8 O        1.658    -0.329    19.523     5.965
    33   6 C        3.892     0.053    19.641     6.300
    34   6 C        3.779     0.096    19.026     6.214
    35   8 O        1.702    -0.324    19.411     5.948
    36   6 C        3.931     0.111    18.702     6.146
    37   8 O        1.658    -0.341    19.740     5.998
    38   6 C        3.816    -0.089    22.183     6.703
    39   6 C        3.718     0.171    17.971     6.056
    40   7 N        2.823    -0.074    22.673     7.072
    41   6 C        3.170     0.097    25.499     8.250
    42   7 N        1.878    -0.301    28.663     7.936
    43   6 C        3.225    -0.006    27.398     8.505
    44   6 C        2.769     0.265    22.528     7.773
    45   8 O        0.858    -0.523    24.308     6.610
    46   7 N        2.700    -0.202    25.389     7.484
    47   6 C        2.830     0.237    23.056     7.868
    48   7 N        2.651    -0.268    26.941     7.709
    49   7 N        1.841    -0.355    30.088     8.129
    50   6 C        3.103     0.126    25.125     8.214
    51   1 H        0.924     0.090     1.875     2.141
    52   1 H        0.924     0.088     1.896     2.153
    53   1 H        0.924     0.106     1.729     2.056
    54   1 H        0.924     0.078     2.002     2.213
    55   1 H        0.924     0.078     1.997     2.210
    56   1 H        0.925     0.082     1.959     2.189
    57   1 H        0.924     0.082     1.955     2.187
    58   1 H        0.926     0.066     2.129     2.282
    59   1 H        0.853     0.231     0.963     1.538
    60   1 H        0.858     0.236     0.939     1.518
    61   1 H        0.860     0.246     0.898     1.485
    62  15 P        3.778     0.755   130.842    20.548
    63   8 O        1.614    -0.409    21.044     6.192
    64   8 O        0.808    -0.612    26.457     6.895
    65   8 O        1.657    -0.325    19.443     5.953
    66   6 C        3.936     0.055    19.591     6.290
    67   6 C        3.798     0.096    19.002     6.207
    68   8 O        1.702    -0.320    19.341     5.938
    69   6 C        3.962     0.108    18.747     6.152
    70   8 O        1.658    -0.345    19.816     6.009
    71   6 C        3.812    -0.094    22.290     6.720
    72   6 C        3.776     0.173    17.858     6.021
    73   7 N        2.742    -0.058    22.357     7.022
    74   6 C        2.703     0.325    21.470     7.584
    75   8 O        0.858    -0.514    24.091     6.581
    76   7 N        2.687    -0.207    25.501     7.500
    77   6 C        2.763     0.280    22.257     7.726
    78   8 O        0.859    -0.474    23.210     6.459
    79   6 C        2.953    -0.033    28.815     8.804
    80   6 C        3.754    -0.127    22.991     6.837
    81   6 C        2.860     0.023    27.490     8.594
    82   1 H        0.924     0.085     1.930     2.173
    83   1 H        0.924     0.094     1.838     2.120
    84   1 H        0.923     0.084     1.938     2.177
    85   1 H        0.924     0.076     2.019     2.222
    86   1 H        0.924     0.101     1.772     2.082
    87   1 H        0.924     0.080     1.979     2.200
    88   1 H        0.924     0.070     2.089     2.260
    89   1 H        0.851     0.232     0.956     1.532
    90   1 H        0.924     0.094     1.842     2.123
    91   1 H        0.924     0.070     2.089     2.260
    92   1 H        0.924     0.068     2.103     2.268
    93   1 H        0.925     0.113     1.672     2.022
    94  15 P        3.756     0.768   130.379    20.511
    95   8 O        0.808    -0.623    26.708     6.928
    96   8 O        1.614    -0.418    21.228     6.219
    97   8 O        1.657    -0.326    19.471     5.957
    98   6 C        3.909     0.065    19.437     6.266
    99   6 C        3.769     0.096    19.034     6.217
   100   8 O        1.700    -0.330    19.519     5.965
   101   6 C        3.934     0.111    18.707     6.146
   102   8 O        1.657    -0.340    19.729     5.996
   103   6 C        3.815    -0.092    22.251     6.714
   104   6 C        3.703     0.176    17.926     6.054
   105   7 N        2.831    -0.072    22.626     7.065
   106   6 C        3.213     0.097    25.229     8.174
   107   7 N        1.874    -0.286    28.264     7.881
   108   6 C        3.261     0.015    26.500     8.316
   109   6 C        2.889     0.176    24.225     8.069
   110   7 N        2.646    -0.251    26.530     7.650
   111   7 N        1.844    -0.325    29.287     8.020
   112   6 C        2.927     0.156    24.618     8.137
   113   7 N        1.827    -0.344    29.778     8.086
   114   6 C        3.169     0.142    24.574     8.099
   115   1 H        0.924     0.080     1.984     2.203
   116   1 H        0.924     0.086     1.919     2.166
   117   1 H        0.924     0.095     1.836     2.119
   118   1 H        0.924     0.074     2.042     2.235
   119   1 H        0.924     0.081     1.973     2.197
   120   1 H        0.925     0.084     1.936     2.176
   121   1 H        0.924     0.066     2.130     2.282
   122   1 H        0.924     0.080     1.980     2.201
   123   1 H        0.858     0.228     0.974     1.546
   124   1 H        0.860     0.245     0.904     1.490
   125   1 H        0.925     0.028     2.612     2.527
   126  15 P        3.778     0.756   130.808    20.545
   127   8 O        1.614    -0.408    21.037     6.190
   128   8 O        0.808    -0.612    26.457     6.895
   129   8 O        1.658    -0.320    19.369     5.941
   130   6 C        3.924     0.062    19.487     6.274
   131   6 C        3.813     0.091    19.069     6.215
   132   8 O        1.702    -0.326    19.449     5.954
   133   6 C        3.936     0.104    18.806     6.163
   134   8 O        1.657    -0.345    19.810     6.008
   135   6 C        3.815    -0.078    21.986     6.674
   136   6 C        3.763     0.181    17.754     6.006
   137   7 N        2.748    -0.088    22.964     7.117
   138   6 C        2.734     0.329    21.406     7.575
   139   8 O        0.860    -0.550    24.923     6.693
   140   7 N        1.848    -0.367    30.426     8.175
   141   6 C        2.860     0.193    23.881     8.010
   142   7 N        2.649    -0.230    26.030     7.577
   143   6 C        2.908    -0.092    30.307     9.027
   144   6 C        2.870     0.040    27.097     8.533
   145   1 H        0.924     0.083     1.944     2.181
   146   1 H        0.924     0.096     1.827     2.114
   147   1 H        0.922     0.076     2.023     2.225
   148   1 H        0.924     0.069     2.092     2.262
   149   1 H        0.924     0.075     2.036     2.232
   150   1 H        0.924     0.069     2.098     2.265
   151   1 H        0.924     0.070     2.084     2.258
   152   1 H        0.858     0.239     0.929     1.510
   153   1 H        0.859     0.253     0.873     1.464
   154   1 H        0.925     0.109     1.701     2.040
   155   1 H        0.925     0.094     1.839     2.121
   156  15 P        3.778     0.763   130.572    20.526
   157   8 O        0.808    -0.618    26.604     6.914
   158   8 O        1.614    -0.404    20.955     6.178
   159   8 O        1.658    -0.315    19.270     5.926
   160   6 C        3.928     0.069    19.363     6.254
   161   6 C        3.764     0.092    19.100     6.229
   162   8 O        1.702    -0.340    19.706     5.993
   163   6 C        3.742     0.104    18.944     6.210
   164   8 O        1.654    -0.490    22.676     6.428
   165   6 C        3.800    -0.099    22.384     6.736
   166   6 C        3.711     0.167    18.037     6.069
   167   7 N        2.819    -0.074    22.665     7.071
   168   6 C        3.137     0.092    25.739     8.304
   169   7 N        1.880    -0.295    28.486     7.912
   170   6 C        3.190    -0.016    27.910     8.617
   171   6 C        2.769     0.260    22.624     7.790
   172   8 O        0.859    -0.515    24.111     6.583
   173   7 N        2.700    -0.199    25.329     7.475
   174   6 C        2.828     0.239    23.004     7.859
   175   7 N        2.651    -0.266    26.891     7.702
   176   7 N        1.841    -0.357    30.153     8.138
   177   6 C        3.099     0.127    25.108     8.212
   178   1 H        0.924     0.062     2.178     2.308
   179   1 H        0.924     0.078     2.000     2.212
   180   1 H        0.924     0.082     1.954     2.186
   181   1 H        0.924     0.070     2.090     2.261
   182   1 H        0.803     0.360     0.565     1.181
   183   1 H        0.924     0.074     2.047     2.237
   184   1 H        0.924     0.097     1.810     2.104
   185   1 H        0.924     0.079     1.987     2.204
   186   1 H        0.925     0.067     2.114     2.274
   187   1 H        0.854     0.237     0.936     1.516
   188   1 H        0.859     0.228     0.973     1.546
   189   1 H        0.859     0.252     0.875     1.465
   190   8 O        1.653    -0.515    23.220     6.505
   191   6 C        3.674     0.059    19.809     6.378
   192   6 C        3.772     0.095    19.036     6.217
   193   8 O        1.700    -0.329    19.513     5.964
   194   6 C        3.940     0.118    18.603     6.129
   195   8 O        1.658    -0.352    19.951     6.030
   196   6 C        3.820    -0.082    22.046     6.682
   197   6 C        3.729     0.183    17.779     6.019
   198   7 N        2.743    -0.073    22.665     7.071
   199   6 C        2.732     0.333    21.338     7.563
   200   8 O        0.860    -0.559    25.140     6.722
   201   7 N        1.843    -0.361    30.260     8.152
   202   6 C        2.859     0.188    23.985     8.027
   203   7 N        2.648    -0.249    26.487     7.644
   204   6 C        2.908    -0.100    30.516     9.058
   205   6 C        2.878     0.047    26.942     8.509
   206   1 H        0.924     0.065     2.136     2.286
   207   1 H        0.924     0.054     2.275     2.359
   208   1 H        0.924     0.074     2.047     2.238
   209   1 H        0.924     0.065     2.140     2.288
   210   1 H        0.924     0.098     1.806     2.102
   211   1 H        0.925     0.058     2.227     2.334
   212   1 H        0.923     0.047     2.356     2.401
   213   1 H        0.858     0.238     0.931     1.512
   214   1 H        0.860     0.256     0.859     1.452
   215   1 H        0.925     0.105     1.744     2.065
   216   1 H        0.925     0.106     1.736     2.060
   217   1 H        0.803     0.384     0.515     1.127
   218  15 P        3.738     0.746   131.143    20.571
   219   8 O        1.614    -0.415    21.174     6.211
   220   8 O        0.808    -0.625    26.782     6.937
   221   8 O        1.658    -0.311    19.203     5.916
   222   6 C        3.891     0.058    19.559     6.287
   223   6 C        3.779     0.095    19.038     6.216
   224   8 O        1.702    -0.323    19.392     5.945
   225   6 C        3.930     0.113    18.670     6.141
   226   8 O        1.658    -0.337    19.667     5.987
   227   6 C        3.816    -0.088    22.172     6.702
   228   6 C        3.718     0.171    17.969     6.055
   229   7 N        2.823    -0.075    22.686     7.074
   230   6 C        3.168     0.098    25.499     8.251
   231   7 N        1.877    -0.299    28.600     7.928
   232   6 C        3.223    -0.007    27.426     8.511
   233   6 C        2.769     0.265    22.523     7.772
   234   8 O        0.859    -0.521    24.250     6.602
   235   7 N        2.702    -0.201    25.363     7.480
   236   6 C        2.830     0.236    23.063     7.870
   237   7 N        2.651    -0.267    26.925     7.707
   238   7 N        1.841    -0.354    30.071     8.127
   239   6 C        3.102     0.126    25.128     8.214
   240   1 H        0.924     0.087     1.912     2.162
   241   1 H        0.924     0.087     1.907     2.159
   242   1 H        0.924     0.103     1.756     2.072
   243   1 H        0.924     0.072     2.059     2.244
   244   1 H        0.924     0.077     2.009     2.217
   245   1 H        0.925     0.081     1.964     2.192
   246   1 H        0.924     0.084     1.934     2.175
   247   1 H        0.926     0.065     2.141     2.288
   248   1 H        0.854     0.232     0.958     1.534
   249   1 H        0.858     0.237     0.937     1.516
   250   1 H        0.860     0.246     0.898     1.484
   251  15 P        3.777     0.760   130.661    20.533
   252   8 O        1.614    -0.393    20.743     6.147
   253   8 O        0.808    -0.598    26.109     6.849
   254   8 O        1.657    -0.346    19.831     6.012
   255   6 C        3.936     0.054    19.614     6.294
   256   6 C        3.799     0.094    19.026     6.211
   257   8 O        1.702    -0.318    19.303     5.932
   258   6 C        3.963     0.110    18.720     6.148
   259   8 O        1.658    -0.334    19.611     5.978
   260   6 C        3.813    -0.090    22.209     6.708
   261   6 C        3.775     0.171    17.883     6.025
   262   7 N        2.742    -0.058    22.360     7.023
   263   6 C        2.703     0.325    21.477     7.585
   264   8 O        0.858    -0.511    24.040     6.574
   265   7 N        2.690    -0.205    25.460     7.494
   266   6 C        2.763     0.280    22.263     7.727
   267   8 O        0.859    -0.467    23.070     6.440
   268   6 C        2.953    -0.033    28.826     8.806
   269   6 C        3.753    -0.126    22.985     6.836
   270   6 C        2.860     0.023    27.481     8.593
   271   1 H        0.924     0.090     1.878     2.143
   272   1 H        0.924     0.090     1.876     2.142
   273   1 H        0.923     0.090     1.875     2.142
   274   1 H        0.924     0.075     2.033     2.230
   275   1 H        0.924     0.097     1.816     2.108
   276   1 H        0.924     0.073     2.053     2.241
   277   1 H        0.924     0.073     2.055     2.242
   278   1 H        0.854     0.234     0.949     1.526
   279   1 H        0.924     0.067     2.121     2.277
   280   1 H        0.924     0.093     1.854     2.130
   281   1 H        0.924     0.072     2.059     2.244
   282   1 H        0.925     0.111     1.691     2.033
   283  15 P        3.758     0.759   130.706    20.537
   284   8 O        1.614    -0.398    20.835     6.161
   285   8 O        0.808    -0.605    26.268     6.870
   286   8 O        1.657    -0.340    19.723     5.995
   287   6 C        3.909     0.054    19.609     6.294
   288   6 C        3.769     0.097    19.019     6.215
   289   8 O        1.701    -0.326    19.458     5.956
   290   6 C        3.934     0.111    18.704     6.146
   291   8 O        1.657    -0.334    19.617     5.979
   292   6 C        3.815    -0.092    22.242     6.712
   293   6 C        3.703     0.175    17.940     6.056
   294   7 N        2.831    -0.072    22.631     7.065
   295   6 C        3.214     0.099    25.181     8.165
   296   7 N        1.874    -0.291    28.390     7.898
   297   6 C        3.262     0.015    26.508     8.316
   298   6 C        2.889     0.174    24.258     8.075
   299   7 N        2.648    -0.246    26.413     7.633
   300   7 N        1.844    -0.320    29.154     8.002
   301   6 C        2.927     0.156    24.634     8.139
   302   7 N        1.827    -0.341    29.697     8.075
   303   6 C        3.168     0.142    24.581     8.101
   304   1 H        0.924     0.094     1.838     2.120
   305   1 H        0.924     0.085     1.926     2.170
   306   1 H        0.924     0.100     1.789     2.092
   307   1 H        0.924     0.074     2.042     2.235
   308   1 H        0.924     0.077     2.010     2.217
   309   1 H        0.925     0.082     1.953     2.186
   310   1 H        0.924     0.069     2.102     2.267
   311   1 H        0.925     0.076     2.026     2.226
   312   1 H        0.860     0.232     0.957     1.533
   313   1 H        0.860     0.242     0.916     1.499
   314   1 H        0.925     0.032     2.558     2.501
   315  15 P        3.776     0.759   130.689    20.536
   316   8 O        1.614    -0.390    20.686     6.139
   317   8 O        0.808    -0.594    25.992     6.834
   318   8 O        1.658    -0.344    19.798     6.007
   319   6 C        3.923     0.059    19.538     6.282
   320   6 C        3.813     0.093    19.038     6.210
   321   8 O        1.702    -0.324    19.425     5.951
   322   6 C        3.936     0.109    18.741     6.152
   323   8 O        1.657    -0.330    19.532     5.966
   324   6 C        3.815    -0.077    21.959     6.670
   325   6 C        3.764     0.180    17.765     6.008
   326   7 N        2.748    -0.088    22.947     7.115
   327   6 C        2.734     0.329    21.407     7.575
   328   8 O        0.860    -0.546    24.822     6.680
   329   7 N        1.849    -0.364    30.341     8.164
   330   6 C        2.860     0.194    23.863     8.007
   331   7 N        2.650    -0.232    26.082     7.585
   332   6 C        2.908    -0.091    30.293     9.025
   333   6 C        2.870     0.041    27.078     8.530
   334   1 H        0.923     0.085     1.925     2.170
   335   1 H        0.924     0.094     1.840     2.121
   336   1 H        0.922     0.078     2.000     2.211
   337   1 H        0.924     0.066     2.131     2.283
   338   1 H        0.924     0.068     2.107     2.270
   339   1 H        0.924     0.069     2.098     2.265
   340   1 H        0.923     0.075     2.035     2.231
   341   1 H        0.858     0.239     0.927     1.509
   342   1 H        0.859     0.252     0.875     1.466
   343   1 H        0.926     0.106     1.733     2.059
   344   1 H        0.925     0.091     1.872     2.140
   345  15 P        3.778     0.752   130.928    20.554
   346   8 O        1.614    -0.398    20.842     6.162
   347   8 O        0.808    -0.609    26.376     6.884
   348   8 O        1.658    -0.335    19.625     5.980
   349   6 C        3.928     0.057    19.567     6.286
   350   6 C        3.764     0.093    19.081     6.226
   351   8 O        1.702    -0.338    19.670     5.988
   352   6 C        3.742     0.108    18.873     6.198
   353   8 O        1.654    -0.501    22.922     6.463
   354   6 C        3.800    -0.089    22.189     6.707
   355   6 C        3.710     0.168    18.032     6.069
   356   7 N        2.820    -0.075    22.692     7.075
   357   6 C        3.138     0.095    25.673     8.293
   358   7 N        1.880    -0.300    28.634     7.932
   359   6 C        3.192    -0.016    27.883     8.611
   360   6 C        2.769     0.259    22.633     7.791
   361   8 O        0.859    -0.519    24.206     6.596
   362   7 N        2.700    -0.199    25.332     7.475
   363   6 C        2.828     0.239    23.007     7.860
   364   7 N        2.651    -0.266    26.889     7.701
   365   7 N        1.842    -0.356    30.117     8.133
   366   6 C        3.099     0.127    25.105     8.211
   367   1 H        0.924     0.074     2.041     2.234
   368   1 H        0.924     0.080     1.979     2.200
   369   1 H        0.924     0.085     1.924     2.169
   370   1 H        0.924     0.051     2.310     2.377
   371   1 H        0.803     0.373     0.538     1.152
   372   1 H        0.924     0.072     2.066     2.248
   373   1 H        0.924     0.099     1.794     2.095
   374   1 H        0.924     0.081     1.969     2.194
   375   1 H        0.925     0.063     2.163     2.300
   376   1 H        0.854     0.238     0.932     1.512
   377   1 H        0.859     0.229     0.969     1.542
   378   1 H        0.859     0.253     0.873     1.463
   379   1 H        0.897     0.459     0.384     0.970
   380   1 H        0.897     0.491     0.342     0.916
   381   1 H        0.897     0.484     0.351     0.928
   382   1 H        0.898     0.490     0.344     0.918
   383   1 H        0.898     0.463     0.379     0.963
   384   1 H        0.898     0.462     0.380     0.964
   385   1 H        0.897     0.460     0.382     0.968
   386   1 H        0.898     0.458     0.385     0.971
   387   1 H        0.898     0.466     0.375     0.958
   388   1 H        0.898     0.476     0.361     0.940

 Mol. C6AA /au·bohr⁶  :    1941544.606644
 Mol. C8AA /au·bohr⁸  :   48063365.391542
 Mol. α(0) /au        :       2107.797008


Wiberg/Mayer (AO) data.
largest (>0.10) Wiberg bond orders for each atom

 ---------------------------------------------------------------------------
     #   Z sym  total        # sym  WBO       # sym  WBO       # sym  WBO
 ---------------------------------------------------------------------------
     1   8 O    1.932 --     2 C    1.005    28 H    0.861
     2   6 C    3.953 --     1 O    1.005     3 C    0.977    17 H    0.967
                            18 H    0.967
     3   6 C    3.938 --     2 C    0.977     5 C    0.963     4 O    0.958
                            19 H    0.956
     4   8 O    2.058 --     8 C    0.969     3 C    0.958
     5   6 C    3.917 --     7 C    0.991     3 C    0.963    20 H    0.963
                             6 O    0.925
     6   8 O    2.258 --    29 P    1.118     5 C    0.925
     7   6 C    3.986 --     5 C    0.991     8 C    0.985    22 H    0.969
                            21 H    0.962
     8   6 C    3.942 --     7 C    0.985     4 O    0.969     9 N    0.959
                            23 H    0.956
     9   7 N    3.593 --    16 C    1.221    10 C    1.082     8 C    0.959
                            11 O    0.108
    10   6 C    3.948 --    11 O    1.526    12 N    1.243     9 N    1.082
    11   8 O    1.917 --    10 C    1.526    12 N    0.125     9 N    0.108
    12   7 N    3.070 --    13 C    1.336    10 C    1.243    11 O    0.125
                            14 N    0.111
    13   6 C    3.965 --    14 N    1.378    12 N    1.336    15 C    1.159
    14   7 N    3.451 --    13 C    1.378    25 H    0.914    24 H    0.882
                            12 N    0.111
    15   6 C    3.971 --    16 C    1.635    13 C    1.159    26 H    0.958
    16   6 C    3.953 --    15 C    1.635     9 N    1.221    27 H    0.946
    17   1 H    0.995 --     2 C    0.967
    18   1 H    0.994 --     2 C    0.967
    19   1 H    0.994 --     3 C    0.956
    20   1 H    0.995 --     5 C    0.963
    21   1 H    0.991 --     7 C    0.962
    22   1 H    0.997 --     7 C    0.969
    23   1 H    0.997 --     8 C    0.956
    24   1 H    0.944 --    14 N    0.882
    25   1 H    0.933 --    14 N    0.914
    26   1 H    0.988 --    15 C    0.958
    27   1 H    0.990 --    16 C    0.946
    28   1 H    0.882 --     1 O    0.861
    29  15 P    5.462 --    31 O    1.755    30 O    1.351    32 O    1.163
                             6 O    1.118
    30   8 O    2.265 --    29 P    1.351   383 H    0.746
    31   8 O    1.956 --    29 P    1.755
    32   8 O    2.278 --    29 P    1.163    33 C    0.927
    33   6 C    3.912 --    34 C    0.983    51 H    0.965    52 H    0.961
                            32 O    0.927
    34   6 C    3.942 --    33 C    0.983    35 O    0.967    36 C    0.967
                            53 H    0.948
    35   8 O    2.080 --    39 C    0.974    34 C    0.967
    36   6 C    3.927 --    38 C    0.995    34 C    0.967    54 H    0.961
                            37 O    0.934
    37   8 O    2.261 --    62 P    1.114    36 C    0.934
    38   6 C    3.987 --    36 C    0.995    39 C    0.988    55 H    0.963
                            56 H    0.961
    39   6 C    3.930 --    38 C    0.988    35 O    0.974    57 H    0.950
                            40 N    0.948
    40   7 N    3.581 --    41 C    1.190    50 C    1.169    39 C    0.948
                            42 N    0.108
    41   6 C    3.945 --    42 N    1.612    40 N    1.190    58 H    0.953
    42   7 N    3.016 --    41 C    1.612    43 C    1.191    40 N    0.108
    43   6 C    3.965 --    50 C    1.344    42 N    1.191    44 C    1.143
    44   6 C    3.950 --    45 O    1.543    46 N    1.144    43 C    1.143
    45   8 O    1.927 --    44 C    1.543    46 N    0.133
    46   7 N    3.514 --    47 C    1.174    44 C    1.144    59 H    0.824
                            45 O    0.133
    47   6 C    3.965 --    49 N    1.369    48 N    1.322    46 N    1.174
    48   7 N    3.386 --    47 C    1.322    61 H    0.920    60 H    0.881
                            49 N    0.105
    49   7 N    2.964 --    47 C    1.369    50 C    1.239    48 N    0.105
    50   6 C    3.961 --    43 C    1.344    49 N    1.239    40 N    1.169
    51   1 H    0.991 --    33 C    0.965
    52   1 H    0.992 --    33 C    0.961
    53   1 H    0.987 --    34 C    0.948
    54   1 H    0.994 --    36 C    0.961
    55   1 H    0.993 --    38 C    0.963
    56   1 H    0.993 --    38 C    0.961
    57   1 H    0.993 --    39 C    0.950
    58   1 H    0.995 --    41 C    0.953
    59   1 H    0.946 --    46 N    0.824
    60   1 H    0.943 --    48 N    0.881
    61   1 H    0.938 --    48 N    0.920
    62  15 P    5.443 --    64 O    1.738    63 O    1.379    65 O    1.145
                            37 O    1.114
    63   8 O    2.263 --    62 P    1.379   382 H    0.724
    64   8 O    1.943 --    62 P    1.738
    65   8 O    2.275 --    62 P    1.145    66 C    0.937
    66   6 C    3.920 --    67 C    0.988    83 H    0.963    82 H    0.960
                            65 O    0.937
    67   6 C    3.945 --    66 C    0.988    68 O    0.969    69 C    0.962
                            84 H    0.947
    68   8 O    2.070 --    67 C    0.969    72 C    0.966
    69   6 C    3.923 --    71 C    0.992    67 C    0.962    85 H    0.960
                            70 O    0.928
    70   8 O    2.260 --    94 P    1.116    69 C    0.928
    71   6 C    3.981 --    69 C    0.992    72 C    0.976    87 H    0.968
                            86 H    0.963
    72   6 C    3.926 --    71 C    0.976    68 O    0.966    73 N    0.958
                            88 H    0.954
    73   7 N    3.583 --    81 C    1.170    74 C    1.123    72 C    0.958
                            75 O    0.128
    74   6 C    3.959 --    75 O    1.583    76 N    1.164    73 N    1.123
    75   8 O    1.925 --    74 C    1.583    76 N    0.134    73 N    0.128
    76   7 N    3.516 --    74 C    1.164    77 C    1.139    89 H    0.813
                            78 O    0.138    75 O    0.134
    77   6 C    3.938 --    78 O    1.614    76 N    1.139    79 C    1.087
    78   8 O    1.991 --    77 C    1.614    76 N    0.138
    79   6 C    3.980 --    81 C    1.647    77 C    1.087    80 C    1.022
    80   6 C    3.983 --    79 C    1.022    92 H    0.979    91 H    0.975
                            90 H    0.959
    81   6 C    3.949 --    79 C    1.647    73 N    1.170    93 H    0.945
    82   1 H    0.992 --    66 C    0.960
    83   1 H    0.991 --    66 C    0.963
    84   1 H    0.992 --    67 C    0.947
    85   1 H    0.994 --    69 C    0.960
    86   1 H    0.989 --    71 C    0.963
    87   1 H    0.993 --    71 C    0.968
    88   1 H    0.995 --    72 C    0.954
    89   1 H    0.945 --    76 N    0.813
    90   1 H    0.989 --    80 C    0.959
    91   1 H    0.994 --    80 C    0.975
    92   1 H    0.995 --    80 C    0.979
    93   1 H    0.987 --    81 C    0.945
    94  15 P    5.410 --    95 O    1.717    96 O    1.360    97 O    1.137
                            70 O    1.116
    95   8 O    1.927 --    94 P    1.717
    96   8 O    2.249 --    94 P    1.360   381 H    0.731
    97   8 O    2.269 --    94 P    1.137    98 C    0.938
    98   6 C    3.918 --    99 C    0.987   115 H    0.967   116 H    0.964
                            97 O    0.938
    99   6 C    3.941 --    98 C    0.987   101 C    0.967   100 O    0.963
                           117 H    0.950
   100   8 O    2.070 --   104 C    0.972    99 C    0.963
   101   6 C    3.928 --   103 C    0.992    99 C    0.967   118 H    0.962
                           102 O    0.938
   102   8 O    2.260 --   126 P    1.109   101 C    0.938
   103   6 C    3.985 --   101 C    0.992   104 C    0.984   119 H    0.965
                           120 H    0.960
   104   6 C    3.933 --   103 C    0.984   100 O    0.972   105 N    0.955
                           121 H    0.955
   105   7 N    3.594 --   106 C    1.208   114 C    1.161   104 C    0.955
                           107 N    0.113
   106   6 C    3.946 --   107 N    1.599   105 N    1.208   122 H    0.951
   107   7 N    3.005 --   106 C    1.599   108 C    1.186   105 N    0.113
   108   6 C    3.973 --   114 C    1.331   109 C    1.195   107 N    1.186
   109   6 C    3.971 --   110 N    1.345   111 N    1.291   108 C    1.195
   110   7 N    3.431 --   109 C    1.345   124 H    0.919   123 H    0.883
   111   7 N    3.111 --   112 C    1.398   109 C    1.291
   112   6 C    3.970 --   113 N    1.467   111 N    1.398   125 H    0.957
   113   7 N    3.003 --   112 C    1.467   114 C    1.256
   114   6 C    3.961 --   108 C    1.331   113 N    1.256   105 N    1.161
   115   1 H    0.993 --    98 C    0.967
   116   1 H    0.992 --    98 C    0.964
   117   1 H    0.990 --    99 C    0.950
   118   1 H    0.994 --   101 C    0.962
   119   1 H    0.993 --   103 C    0.965
   120   1 H    0.993 --   103 C    0.960
   121   1 H    0.996 --   104 C    0.955
   122   1 H    0.993 --   106 C    0.951
   123   1 H    0.947 --   110 N    0.883
   124   1 H    0.940 --   110 N    0.919
   125   1 H    0.999 --   112 C    0.957
   126  15 P    5.438 --   128 O    1.737   127 O    1.381   129 O    1.142
                           102 O    1.109
   127   8 O    2.264 --   126 P    1.381   380 H    0.724
   128   8 O    1.941 --   126 P    1.737
   129   8 O    2.280 --   126 P    1.142   130 C    0.940
   130   6 C    3.922 --   131 C    0.978   145 H    0.967   146 H    0.961
                           129 O    0.940
   131   6 C    3.933 --   130 C    0.978   132 O    0.966   133 C    0.964
                           147 H    0.944
   132   8 O    2.073 --   136 C    0.970   131 C    0.966
   133   6 C    3.930 --   135 C    0.985   131 C    0.964   148 H    0.957
                           134 O    0.937
   134   8 O    2.265 --   156 P    1.109   133 C    0.937
   135   6 C    3.987 --   133 C    0.985   136 C    0.976   150 H    0.974
                           149 H    0.970
   136   6 C    3.931 --   135 C    0.976   132 O    0.970   137 N    0.960
                           151 H    0.954
   137   7 N    3.578 --   144 C    1.198   138 C    1.088   136 C    0.960
                           139 O    0.111
   138   6 C    3.952 --   139 O    1.520   140 N    1.246   137 N    1.088
   139   8 O    1.908 --   138 C    1.520   140 N    0.125   137 N    0.111
   140   7 N    3.080 --   141 C    1.330   138 C    1.246   139 O    0.125
                           142 N    0.111
   141   6 C    3.965 --   142 N    1.390   140 N    1.330   143 C    1.152
   142   7 N    3.464 --   141 C    1.390   153 H    0.914   152 H    0.880
                           140 N    0.111
   143   6 C    3.973 --   144 C    1.652   141 C    1.152   154 H    0.956
   144   6 C    3.952 --   143 C    1.652   137 N    1.198   155 H    0.952
   145   1 H    0.993 --   130 C    0.967
   146   1 H    0.990 --   130 C    0.961
   147   1 H    0.993 --   131 C    0.944
   148   1 H    0.995 --   133 C    0.957
   149   1 H    0.994 --   135 C    0.970
   150   1 H    0.995 --   135 C    0.974
   151   1 H    0.994 --   136 C    0.954
   152   1 H    0.942 --   142 N    0.880
   153   1 H    0.935 --   142 N    0.914
   154   1 H    0.987 --   143 C    0.956
   155   1 H    0.990 --   144 C    0.952
   156  15 P    5.421 --   157 O    1.724   158 O    1.345   159 O    1.157
                           134 O    1.109
   157   8 O    1.934 --   156 P    1.724
   158   8 O    2.257 --   156 P    1.345   379 H    0.749
   159   8 O    2.281 --   156 P    1.157   160 C    0.930
   160   6 C    3.913 --   161 C    0.983   178 H    0.969   179 H    0.965
                           159 O    0.930
   161   6 C    3.940 --   160 C    0.983   162 O    0.967   163 C    0.963
                           180 H    0.950
   162   8 O    2.075 --   166 C    0.969   161 C    0.967
   163   6 C    3.960 --   164 O    1.005   165 C    0.984   181 H    0.963
                           161 C    0.963
   164   8 O    1.932 --   163 C    1.005   182 H    0.854
   165   6 C    3.984 --   163 C    0.984   166 C    0.983   183 H    0.971
                           184 H    0.969
   166   6 C    3.922 --   165 C    0.983   162 O    0.969   185 H    0.954
                           167 N    0.948
   167   7 N    3.585 --   168 C    1.190   177 C    1.172   166 C    0.948
                           169 N    0.110
   168   6 C    3.943 --   169 N    1.613   167 N    1.190   186 H    0.957
   169   7 N    3.011 --   168 C    1.613   170 C    1.188   167 N    0.110
   170   6 C    3.962 --   177 C    1.342   169 N    1.188   171 C    1.142
   171   6 C    3.951 --   172 O    1.548   170 C    1.142   173 N    1.141
   172   8 O    1.938 --   171 C    1.548   173 N    0.136
   173   7 N    3.514 --   174 C    1.172   171 C    1.141   187 H    0.836
                           172 O    0.136
   174   6 C    3.966 --   176 N    1.365   175 N    1.333   173 N    1.172
   175   7 N    3.399 --   174 C    1.333   189 H    0.916   188 H    0.881
                           176 N    0.105
   176   7 N    2.967 --   174 C    1.365   177 C    1.243   175 N    0.105
   177   6 C    3.962 --   170 C    1.342   176 N    1.243   167 N    1.172
   178   1 H    0.996 --   160 C    0.969
   179   1 H    0.994 --   160 C    0.965
   180   1 H    0.992 --   161 C    0.950
   181   1 H    0.995 --   163 C    0.963
   182   1 H    0.870 --   164 O    0.854
   183   1 H    0.995 --   165 C    0.971
   184   1 H    0.990 --   165 C    0.969
   185   1 H    0.994 --   166 C    0.954
   186   1 H    0.995 --   168 C    0.957
   187   1 H    0.943 --   173 N    0.836
   188   1 H    0.947 --   175 N    0.881
   189   1 H    0.935 --   175 N    0.916
   190   8 O    1.896 --   191 C    1.002   217 H    0.840
   191   6 C    3.959 --   190 O    1.002   192 C    0.986   207 H    0.968
                           206 H    0.967
   192   6 C    3.941 --   191 C    0.986   194 C    0.963   193 O    0.962
                           208 H    0.956
   193   8 O    2.062 --   197 C    0.971   192 C    0.962
   194   6 C    3.915 --   196 C    0.992   192 C    0.963   209 H    0.962
                           195 O    0.923
   195   8 O    2.254 --   218 P    1.114   194 C    0.923
   196   6 C    3.986 --   194 C    0.992   197 C    0.984   211 H    0.970
                           210 H    0.961
   197   6 C    3.943 --   196 C    0.984   193 O    0.971   198 N    0.959
                           212 H    0.956
   198   7 N    3.595 --   205 C    1.223   199 C    1.084   197 C    0.959
                           200 O    0.108
   199   6 C    3.947 --   200 O    1.522   201 N    1.243   198 N    1.084
   200   8 O    1.912 --   199 C    1.522   201 N    0.125   198 N    0.108
   201   7 N    3.065 --   202 C    1.335   199 C    1.243   200 O    0.125
                           203 N    0.109
   202   6 C    3.966 --   203 N    1.372   201 N    1.335   204 C    1.165
   203   7 N    3.443 --   202 C    1.372   214 H    0.915   213 H    0.880
                           201 N    0.109
   204   6 C    3.970 --   205 C    1.629   202 C    1.165   215 H    0.958
   205   6 C    3.948 --   204 C    1.629   198 N    1.223   216 H    0.950
   206   1 H    0.995 --   191 C    0.967
   207   1 H    0.997 --   191 C    0.968
   208   1 H    0.994 --   192 C    0.956
   209   1 H    0.995 --   194 C    0.962
   210   1 H    0.990 --   196 C    0.961
   211   1 H    0.997 --   196 C    0.970
   212   1 H    0.997 --   197 C    0.956
   213   1 H    0.943 --   203 N    0.880
   214   1 H    0.933 --   203 N    0.915
   215   1 H    0.988 --   204 C    0.958
   216   1 H    0.988 --   205 C    0.950
   217   1 H    0.852 --   190 O    0.840
   218  15 P    5.454 --   220 O    1.725   219 O    1.346   221 O    1.195
                           195 O    1.114
   219   8 O    2.253 --   218 P    1.346   388 H    0.737
   220   8 O    1.932 --   218 P    1.725
   221   8 O    2.300 --   218 P    1.195   222 C    0.927
   222   6 C    3.912 --   223 C    0.984   240 H    0.967   241 H    0.965
                           221 O    0.927
   223   6 C    3.943 --   222 C    0.984   224 O    0.968   225 C    0.967
                           242 H    0.948
   224   8 O    2.080 --   228 C    0.973   223 C    0.968
   225   6 C    3.927 --   227 C    0.995   223 C    0.967   243 H    0.961
                           226 O    0.932
   226   8 O    2.265 --   251 P    1.119   225 C    0.932
   227   6 C    3.987 --   225 C    0.995   228 C    0.988   244 H    0.963
                           245 H    0.962
   228   6 C    3.931 --   227 C    0.988   224 O    0.973   229 N    0.950
                           246 H    0.949
   229   7 N    3.581 --   230 C    1.189   239 C    1.167   228 C    0.950
                           231 N    0.108
   230   6 C    3.945 --   231 N    1.614   229 N    1.189   247 H    0.953
   231   7 N    3.016 --   230 C    1.614   232 C    1.190   229 N    0.108
   232   6 C    3.965 --   239 C    1.345   231 N    1.190   233 C    1.143
   233   6 C    3.951 --   234 O    1.543   235 N    1.143   232 C    1.143
   234   8 O    1.928 --   233 C    1.543   235 N    0.133
   235   7 N    3.515 --   236 C    1.174   233 C    1.143   248 H    0.827
                           234 O    0.133
   236   6 C    3.965 --   238 N    1.370   237 N    1.321   235 N    1.174
   237   7 N    3.385 --   236 C    1.321   250 H    0.919   249 H    0.881
                           238 N    0.105
   238   7 N    2.965 --   236 C    1.370   239 C    1.240   237 N    0.105
   239   6 C    3.960 --   232 C    1.345   238 N    1.240   229 N    1.167
   240   1 H    0.992 --   222 C    0.967
   241   1 H    0.992 --   222 C    0.965
   242   1 H    0.988 --   223 C    0.948
   243   1 H    0.994 --   225 C    0.961
   244   1 H    0.994 --   227 C    0.963
   245   1 H    0.993 --   227 C    0.962
   246   1 H    0.993 --   228 C    0.949
   247   1 H    0.995 --   230 C    0.953
   248   1 H    0.946 --   235 N    0.827
   249   1 H    0.943 --   237 N    0.881
   250   1 H    0.938 --   237 N    0.919
   251  15 P    5.446 --   253 O    1.764   252 O    1.381   226 O    1.119
                           254 O    1.110
   252   8 O    2.283 --   251 P    1.381   387 H    0.744
   253   8 O    1.962 --   251 P    1.764
   254   8 O    2.249 --   251 P    1.110   255 C    0.937
   255   6 C    3.921 --   256 C    0.988   272 H    0.959   271 H    0.958
                           254 O    0.937
   256   6 C    3.945 --   255 C    0.988   257 O    0.969   258 C    0.962
                           273 H    0.946
   257   8 O    2.070 --   256 C    0.969   261 C    0.966
   258   6 C    3.923 --   260 C    0.994   256 C    0.962   274 H    0.962
                           259 O    0.930
   259   8 O    2.269 --   283 P    1.125   258 C    0.930
   260   6 C    3.983 --   258 C    0.994   261 C    0.977   276 H    0.970
                           275 H    0.964
   261   6 C    3.927 --   260 C    0.977   257 O    0.966   262 N    0.959
                           277 H    0.953
   262   7 N    3.584 --   270 C    1.171   263 C    1.124   261 C    0.959
                           264 O    0.128
   263   6 C    3.959 --   264 O    1.584   265 N    1.163   262 N    1.124
   264   8 O    1.927 --   263 C    1.584   265 N    0.134   262 N    0.128
   265   7 N    3.516 --   263 C    1.163   266 C    1.137   278 H    0.820
                           267 O    0.138   264 O    0.134
   266   6 C    3.939 --   267 O    1.616   265 N    1.137   268 C    1.088
   267   8 O    1.998 --   266 C    1.616   265 N    0.138
   268   6 C    3.980 --   270 C    1.645   266 C    1.088   269 C    1.022
   269   6 C    3.983 --   268 C    1.022   279 H    0.980   281 H    0.974
                           280 H    0.959
   270   6 C    3.950 --   268 C    1.645   262 N    1.171   282 H    0.946
   271   1 H    0.991 --   255 C    0.958
   272   1 H    0.991 --   255 C    0.959
   273   1 H    0.991 --   256 C    0.946
   274   1 H    0.994 --   258 C    0.962
   275   1 H    0.990 --   260 C    0.964
   276   1 H    0.994 --   260 C    0.970
   277   1 H    0.994 --   261 C    0.953
   278   1 H    0.944 --   265 N    0.820
   279   1 H    0.995 --   269 C    0.980
   280   1 H    0.989 --   269 C    0.959
   281   1 H    0.994 --   269 C    0.974
   282   1 H    0.988 --   270 C    0.946
   283  15 P    5.444 --   285 O    1.754   284 O    1.362   286 O    1.134
                           259 O    1.125
   284   8 O    2.274 --   283 P    1.362   386 H    0.746
   285   8 O    1.954 --   283 P    1.754
   286   8 O    2.261 --   283 P    1.134   287 C    0.936
   287   6 C    3.920 --   288 C    0.987   304 H    0.964   305 H    0.958
                           286 O    0.936
   288   6 C    3.940 --   287 C    0.987   290 C    0.967   289 O    0.963
                           306 H    0.949
   289   8 O    2.072 --   293 C    0.973   288 C    0.963
   290   6 C    3.926 --   292 C    0.992   288 C    0.967   307 H    0.960
                           291 O    0.935
   291   8 O    2.266 --   315 P    1.118   290 C    0.935
   292   6 C    3.986 --   290 C    0.992   293 C    0.984   308 H    0.966
                           309 H    0.961
   293   6 C    3.934 --   292 C    0.984   289 O    0.973   294 N    0.955
                           310 H    0.954
   294   7 N    3.594 --   295 C    1.211   303 C    1.159   293 C    0.955
                           296 N    0.112
   295   6 C    3.950 --   296 N    1.599   294 N    1.211   311 H    0.954
   296   7 N    3.004 --   295 C    1.599   297 C    1.186   294 N    0.112
   297   6 C    3.973 --   303 C    1.332   298 C    1.195   296 N    1.186
   298   6 C    3.972 --   299 N    1.348   300 N    1.291   297 C    1.195
   299   7 N    3.442 --   298 C    1.348   313 H    0.923   312 H    0.888
   300   7 N    3.120 --   301 C    1.395   298 C    1.291
   301   6 C    3.969 --   302 N    1.468   300 N    1.395   314 H    0.957
   302   7 N    3.005 --   301 C    1.468   303 C    1.256
   303   6 C    3.961 --   297 C    1.332   302 N    1.256   294 N    1.159
   304   1 H    0.991 --   287 C    0.964
   305   1 H    0.992 --   287 C    0.958
   306   1 H    0.989 --   288 C    0.949
   307   1 H    0.994 --   290 C    0.960
   308   1 H    0.994 --   292 C    0.966
   309   1 H    0.993 --   292 C    0.961
   310   1 H    0.995 --   293 C    0.954
   311   1 H    0.993 --   295 C    0.954
   312   1 H    0.946 --   299 N    0.888
   313   1 H    0.941 --   299 N    0.923
   314   1 H    0.999 --   301 C    0.957
   315  15 P    5.446 --   317 O    1.767   316 O    1.380   291 O    1.118
                           318 O    1.109
   316   8 O    2.285 --   315 P    1.380   385 H    0.749
   317   8 O    1.967 --   315 P    1.767
   318   8 O    2.254 --   315 P    1.109   319 C    0.940
   319   6 C    3.924 --   320 C    0.979   334 H    0.963   335 H    0.961
                           318 O    0.940
   320   6 C    3.936 --   319 C    0.979   321 O    0.967   322 C    0.965
                           336 H    0.944
   321   8 O    2.074 --   325 C    0.970   320 C    0.967
   322   6 C    3.929 --   324 C    0.985   320 C    0.965   337 H    0.960
                           323 O    0.942
   323   8 O    2.277 --   345 P    1.118   322 C    0.942
   324   6 C    3.987 --   322 C    0.985   325 C    0.977   339 H    0.974
                           338 H    0.970
   325   6 C    3.931 --   324 C    0.977   321 O    0.970   326 N    0.959
                           340 H    0.953
   326   7 N    3.578 --   333 C    1.200   327 C    1.089   325 C    0.959
                           328 O    0.111
   327   6 C    3.952 --   328 O    1.521   329 N    1.244   326 N    1.089
   328   8 O    1.910 --   327 C    1.521   329 N    0.125   326 N    0.111
   329   7 N    3.083 --   330 C    1.332   327 C    1.244   328 O    0.125
                           331 N    0.110
   330   6 C    3.966 --   331 N    1.385   329 N    1.332   332 C    1.154
   331   7 N    3.456 --   330 C    1.385   342 H    0.914   341 H    0.880
                           329 N    0.110
   332   6 C    3.974 --   333 C    1.651   330 C    1.154   343 H    0.957
   333   6 C    3.954 --   332 C    1.651   326 N    1.200   344 H    0.953
   334   1 H    0.993 --   319 C    0.963
   335   1 H    0.991 --   319 C    0.961
   336   1 H    0.993 --   320 C    0.944
   337   1 H    0.995 --   322 C    0.960
   338   1 H    0.995 --   324 C    0.970
   339   1 H    0.995 --   324 C    0.974
   340   1 H    0.994 --   325 C    0.953
   341   1 H    0.942 --   331 N    0.880
   342   1 H    0.935 --   331 N    0.914
   343   1 H    0.988 --   332 C    0.957
   344   1 H    0.991 --   333 C    0.953
   345  15 P    5.449 --   347 O    1.745   346 O    1.366   348 O    1.146
                           323 O    1.118
   346   8 O    2.271 --   345 P    1.366   384 H    0.743
   347   8 O    1.952 --   345 P    1.745
   348   8 O    2.269 --   345 P    1.146   349 C    0.928
   349   6 C    3.916 --   350 C    0.983   367 H    0.967   368 H    0.958
                           348 O    0.928
   350   6 C    3.939 --   349 C    0.983   351 O    0.966   352 C    0.962
                           369 H    0.949
   351   8 O    2.077 --   355 C    0.972   350 C    0.966
   352   6 C    3.962 --   353 O    1.000   354 C    0.991   370 H    0.963
                           350 C    0.962
   353   8 O    1.914 --   352 C    1.000   371 H    0.845
   354   6 C    3.984 --   352 C    0.991   355 C    0.983   372 H    0.971
                           373 H    0.969
   355   6 C    3.922 --   354 C    0.983   351 O    0.972   374 H    0.954
                           356 N    0.946
   356   7 N    3.584 --   357 C    1.192   366 C    1.172   355 C    0.946
                           358 N    0.109
   357   6 C    3.945 --   358 N    1.613   356 N    1.192   375 H    0.958
   358   7 N    3.011 --   357 C    1.613   359 C    1.188   356 N    0.109
   359   6 C    3.962 --   366 C    1.343   358 N    1.188   360 C    1.143
   360   6 C    3.951 --   361 O    1.546   362 N    1.143   359 C    1.143
   361   8 O    1.934 --   360 C    1.546   362 N    0.136
   362   7 N    3.513 --   363 C    1.171   360 C    1.143   376 H    0.834
                           361 O    0.136
   363   6 C    3.966 --   365 N    1.366   364 N    1.332   362 N    1.171
   364   7 N    3.397 --   363 C    1.332   378 H    0.916   377 H    0.881
                           365 N    0.106
   365   7 N    2.968 --   363 C    1.366   366 C    1.243   364 N    0.106
   366   6 C    3.962 --   359 C    1.343   365 N    1.243   356 N    1.172
   367   1 H    0.994 --   349 C    0.967
   368   1 H    0.993 --   349 C    0.958
   369   1 H    0.991 --   350 C    0.949
   370   1 H    0.997 --   352 C    0.963
   371   1 H    0.861 --   353 O    0.845
   372   1 H    0.995 --   354 C    0.971
   373   1 H    0.990 --   354 C    0.969
   374   1 H    0.993 --   355 C    0.954
   375   1 H    0.995 --   357 C    0.958
   376   1 H    0.943 --   362 N    0.834
   377   1 H    0.947 --   364 N    0.881
   378   1 H    0.935 --   364 N    0.916
   379   1 H    0.789 --   158 O    0.749
   380   1 H    0.758 --   127 O    0.724
   381   1 H    0.765 --    96 O    0.731
   382   1 H    0.760 --    63 O    0.724
   383   1 H    0.786 --    30 O    0.746
   384   1 H    0.786 --   346 O    0.743
   385   1 H    0.788 --   316 O    0.749
   386   1 H    0.790 --   284 O    0.746
   387   1 H    0.783 --   252 O    0.744
   388   1 H    0.773 --   219 O    0.737
 ---------------------------------------------------------------------------

Topologies differ in total number of bonds
Writing topology from bond orders to xtbtopo.mol

molecular dipole:
                 x           y           z       tot (Debye)
 q only:        5.521       0.718       5.423
   full:        5.741       1.770       5.718      21.081
molecular quadrupole (traceless):
                xx          xy          yy          xz          yz          zz
 q only:       95.186     -15.728    -120.492     -68.146      39.019      25.306
  q+dip:       78.887      -5.230    -118.557     -95.772      53.683      39.670
   full:       76.658      -6.229    -126.196    -108.009      55.243      49.538


           -------------------------------------------------
          | TOTAL ENERGY             -762.753879381463 Eh   |
          | GRADIENT NORM               0.473924812455 Eh/α |
          | HOMO-LUMO GAP               2.566223244453 eV   |
           -------------------------------------------------
########################################################################
[WARNING] Runtime exception occurred
-2- restart_readRestart: Dimension missmatch in restart file.
-1- restart_readRestart: Number of electron missmatch in restart file.
########################################################################

------------------------------------------------------------------------
 * finished run on 2023/03/09 at 13:52:04.427     
------------------------------------------------------------------------
 total:
 * wall-time:     0 d,  0 h,  0 min,  3.454 sec
 *  cpu-time:     0 d,  0 h,  0 min, 32.350 sec
 * ratio c/w:     9.365 speedup
 SCF:
 * wall-time:     0 d,  0 h,  0 min,  2.905 sec
 *  cpu-time:     0 d,  0 h,  0 min, 28.529 sec
 * ratio c/w:     9.820 speedup

