      -----------------------------------------------------------      
     |                   =====================                   |     
     |                           x T B                           |     
     |                   =====================                   |     
     |                         S. Grimme                         |     
     |          Mulliken Center for Theoretical Chemistry        |     
     |                    University of Bonn                     |     
      -----------------------------------------------------------      

   * xtb version 6.5.1 (579679a) compiled by 'ehlert@majestix' on 2022-07-11

   xtb is free software: you can redistribute it and/or modify it under
   the terms of the GNU Lesser General Public License as published by
   the Free Software Foundation, either version 3 of the License, or
   (at your option) any later version.
   
   xtb is distributed in the hope that it will be useful,
   but WITHOUT ANY WARRANTY; without even the implied warranty of
   MERCHANTABILITY or FITNESS FOR A PARTICULAR PURPOSE.  See the
   GNU Lesser General Public License for more details.
   
   Cite this work as:
   * C. Bannwarth, E. Caldeweyher, S. Ehlert, A. Hansen, P. Pracht,
     J. Seibert, S. Spicher, S. Grimme, WIREs Comput. Mol. Sci., 2020, 11,
     e01493. DOI: 10.1002/wcms.1493
   
   for GFN2-xTB:
   * C. Bannwarth, S. Ehlert and S. Grimme., J. Chem. Theory Comput., 2019,
     15, 1652-1671. DOI: 10.1021/acs.jctc.8b01176
   for GFN1-xTB:
   * S. Grimme, C. Bannwarth, P. Shushkov, J. Chem. Theory Comput., 2017,
     13, 1989-2009. DOI: 10.1021/acs.jctc.7b00118
   for GFN0-xTB:
   * P. Pracht, E. Caldeweyher, S. Ehlert, S. Grimme, ChemRxiv, 2019, preprint.
     DOI: 10.26434/chemrxiv.8326202.v1
   for GFN-FF:
   * S. Spicher and S. Grimme, Angew. Chem. Int. Ed., 2020, 59, 15665-15673.
     DOI: 10.1002/anie.202004239
   
   for ALPB and GBSA implicit solvation:
   * S. Ehlert, M. Stahn, S. Spicher, S. Grimme, J. Chem. Theory Comput.,
     2021, 17, 4250-4261. DOI: 10.1021/acs.jctc.1c00471
   
   for DFT-D4:
   * E. Caldeweyher, C. Bannwarth and S. Grimme, J. Chem. Phys., 2017,
     147, 034112. DOI: 10.1063/1.4993215
   * E. Caldeweyher, S. Ehlert, A. Hansen, H. Neugebauer, S. Spicher,
     C. Bannwarth and S. Grimme, J. Chem. Phys., 2019, 150, 154122.
     DOI: 10.1063/1.5090222
   * E. Caldeweyher, J.-M. Mewes, S. Ehlert and S. Grimme, Phys. Chem. Chem. Phys.
     2020, 22, 8499-8512. DOI: 10.1039/D0CP00502A
   
   for sTDA-xTB:
   * S. Grimme and C. Bannwarth, J. Chem. Phys., 2016, 145, 054103.
     DOI: 10.1063/1.4959605
   
   in the mass-spec context:
   * V. Asgeirsson, C. Bauer and S. Grimme, Chem. Sci., 2017, 8, 4879.
     DOI: 10.1039/c7sc00601b
   * J. Koopman and S. Grimme, ACS Omega 2019, 4, 12, 15120-15133.
     DOI: 10.1021/acsomega.9b02011
   
   for metadynamics refer to:
   * S. Grimme, J. Chem. Theory Comput., 2019, 155, 2847-2862
     DOI: 10.1021/acs.jctc.9b00143
   
   for SPH calculations refer to:
   * S. Spicher and S. Grimme, J. Chem. Theory Comput., 2021, 17, 1701-1714
     DOI: 10.1021/acs.jctc.0c01306
   
   with help from (in alphabetical order)
   P. Atkinson, C. Bannwarth, F. Bohle, G. Brandenburg, E. Caldeweyher
   M. Checinski, S. Dohm, S. Ehlert, S. Ehrlich, I. Gerasimov, C. Hölzer
   A. Katbashev, J. Koopman, C. Lavigne, S. Lehtola, F. März, M. Müller,
   F. Musil, H. Neugebauer, J. Pisarek, C. Plett, P. Pracht, F. Pultar,
   J. Seibert, P. Shushkov, S. Spicher, M. Stahn, M. Steiner, T. Strunk,
   J. Stückrath, T. Rose, and J. Unsleber
   
 * started run on 2023/03/09 at 13:52:06.475     

           -------------------------------------------------
          |                Calculation Setup                |
           -------------------------------------------------

          program call               : /N/u/schandy/BigRed3/bin/xtb-6.5.1/bin/xtb 2lfx.xyz --alpb water
          hostname                   : nid00057
          coordinate file            : 2lfx.xyz
          omp threads                :                    10

   ID    Z sym.   atoms
    1    8 O      1, 4, 6, 14, 33-35, 38, 40, 45, 48, 65-67, 70, 72, 80,
                  98-100, 103, 105, 110, 135, 141, 143, 145, 147, 148,
                  159-161, 164, 166, 171, 174, 191-193, 196, 198, 206,
                  224-226, 229, 231, 236, 239, 256-258, 261, 263, 268, 271,
                  288-290, 293, 295, 300, 303, 320-322, 325, 327, 335,
                  353-355, 358, 360, 365, 368, 385, 388, 390, 416-418, 421,
                  423, 428, 446-448, 451, 453, 478-480, 483, 485, 510-512,
                  515, 517, 542-544, 547, 549, 554, 572-574, 577, 579,
                  604-606, 609, 611, 616, 619, 636-638, 641, 643, 651,
                  669-671, 674, 676, 681, 699-701, 704, 706, 731-733, 736,
                  738, 743
    2    6 C      2, 3, 5, 7, 8, 10, 12, 13, 16, 19, 36, 37, 39, 41, 42, 44,
                  47, 49-51, 68, 69, 71, 73, 74, 76, 78, 79, 82, 85, 101,
                  102, 104, 106, 107, 109, 112, 114, 115, 129, 132-134, 137,
                  139, 140, 142, 144, 146, 162, 163, 165, 167, 168, 170, 173,
                  175-177, 194, 195, 197, 199, 200, 202, 204, 205, 208, 211,
                  227, 228, 230, 232, 233, 235, 238, 240-242, 259, 260, 262,
                  264, 265, 267, 270, 272-274, 291, 292, 294, 296, 297, 299,
                  302, 304-306, 323, 324, 326, 328, 329, 331, 333, 334, 337,
                  340, 356, 357, 359, 361, 362, 364, 367, 369-371, 386, 387,
                  389, 391, 392, 394, 396, 397, 400, 402, 419, 420, 422, 424,
                  425, 427, 430, 432, 433, 449, 450, 452, 454, 455, 457, 459,
                  460, 463, 465, 481, 482, 484, 486, 487, 489, 491, 492, 495,
                  497, 513, 514, 516, 518, 519, 521, 523, 524, 527, 529, 545,
                  546, 548, 550, 551, 553, 556, 558, 559, 575, 576, 578, 580,
                  581, 583, 585, 586, 589, 591, 607, 608, 610, 612, 613, 615,
                  618, 620-622, 639, 640, 642, 644, 645, 647, 649, 650, 653,
                  656, 672, 673, 675, 677, 678, 680, 683, 685, 686, 702, 703,
                  705, 707, 708, 710, 712, 713, 716, 718, 734, 735, 737, 739,
                  740, 742, 745, 747, 748
    3    7 N      9, 11, 15, 17, 18, 43, 46, 75, 77, 81, 83, 84, 108, 111,
                  113, 128, 130, 131, 136, 138, 169, 172, 201, 203, 207, 209,
                  210, 234, 237, 266, 269, 298, 301, 330, 332, 336, 338, 339,
                  363, 366, 393, 395, 398, 399, 401, 426, 429, 431, 456, 458,
                  461, 462, 464, 488, 490, 493, 494, 496, 520, 522, 525, 526,
                  528, 552, 555, 557, 582, 584, 587, 588, 590, 614, 617, 646,
                  648, 652, 654, 655, 679, 682, 684, 709, 711, 714, 715, 717,
                  741, 744, 746
    4    1 H      20-31, 52-63, 86-96, 116-126, 149-157, 178-189, 212-222,
                  243-254, 275-286, 307-318, 341-351, 372-384, 403-414,
                  434-444, 466-476, 498-508, 530-540, 560-570, 592-602,
                  623-634, 657-667, 687-697, 719-729, 749-782
    5   15 P      32, 64, 97, 127, 158, 190, 223, 255, 287, 319, 352, 415,
                  445, 477, 509, 541, 571, 603, 635, 668, 698, 730

molecular fragmentation (1/2 indicates fragments):
111111111111111111111111111111111111111111111111111111111111111111111111
111111111111111111111111111111111111111111111111111111111111111111111111
111111111111111111111111111111111111111111111111111111111111111111111111
111111111111111111111111111111111111111111111111111111111111111111111111
111111111111111111111111111111111111111111111111111111111111111111111111
111111111111111111111111222222222222222222222222222222222222222222222222
222222222222222222222222222222222222222222222222222222222222222222222222
222222222222222222222222222222222222222222222222222222222222222222222222
222222222222222222222222222222222222222222222222222222222222222222222222
222222222222222222222222222222222222222222222222222222222222222222222222
22222222222222222222222222222222222222221111111111122222222222
# atoms in fragment 1/2:   395   387
 fragment masses (1/2) :     3696.40     3607.41
CMA distance (Bohr)    :   2.650
constraining FC (au)   :  0.0500

           -------------------------------------------------
          |                 G F N 2 - x T B                 |
           -------------------------------------------------

        Reference                      10.1021/acs.jctc.8b01176
      * Hamiltonian:
        H0-scaling (s, p, d)           1.850000    2.230000    2.230000
        zeta-weighting                 0.500000
      * Dispersion:
        s8                             2.700000
        a1                             0.520000
        a2                             5.000000
        s9                             5.000000
      * Repulsion:
        kExp                           1.500000    1.000000
        rExp                           1.000000
      * Coulomb:
        alpha                          2.000000
        third order                    shell-resolved
        anisotropic                    true
        a3                             3.000000
        a5                             4.000000
        cn-shift                       1.200000
        cn-exp                         4.000000
        max-rad                        5.000000

      * Solvation model:               ALPB
        Solvent                        water
        Parameter file                 internal GFN2-xTB/ALPB
        Dielectric constant                8.0200E+01
        Reference state                gsolv [1 M gas/solution]
        Free energy shift                  1.0808E-03 Eh       6.7819E-01 kcal/mol
        Temperature                        2.9815E+02 K
        Density                            1.0000E+00 kg/L
        Solvent mass                       1.8000E+01 g/mol
        Interaction kernel             P16
        Born radius scaling (c1)           1.4744E+00
        Born radii integrator          GBOBC
        Born offset                        0.0000E+00 a0       0.0000E+00 AA
        H-bond correction              true
        Ion screening                  false
        Surface tension                    1.0000E-05 Eh       1.5569E+01 dyn/cm
        Grid points                               230 per atom

          ...................................................
          :                      SETUP                      :
          :.................................................:
          :  # basis functions                2375          :
          :  # atomic orbitals                2353          :
          :  # shells                         1291          :
          :  # electrons                      2636          :
          :  max. iterations                   250          :
          :  Hamiltonian                  GFN2-xTB          :
          :  restarted?                      false          :
          :  GBSA solvation                   true          :
          :  PC potential                    false          :
          :  electronic temp.          300.0000000     K    :
          :  accuracy                    1.0000000          :
          :  -> integral cutoff          0.2500000E+02      :
          :  -> integral neglect         0.1000000E-07      :
          :  -> SCF convergence          0.1000000E-05 Eh   :
          :  -> wf. convergence          0.1000000E-03 e    :
          :  Broyden damping             0.4000000          :
          ...................................................

 iter      E             dE          RMSdq      gap      omega  full diag
   1  -1559.2886810 -0.155929E+04  0.592E+00    2.93       0.0  T
   2  -1562.7308890 -0.344221E+01  0.338E+00    2.39       1.0  T
   3  -1562.9259651 -0.195076E+00  0.143E+00    2.78       1.0  T
   4  -1563.2722874 -0.346322E+00  0.636E-01    2.42       1.0  T
   5  -1563.3862951 -0.114008E+00  0.309E-01    2.46       1.0  T
   6  -1563.4012660 -0.149709E-01  0.133E-01    2.41       1.0  T
   7  -1563.4046242 -0.335820E-02  0.692E-02    2.42       1.0  T
   8  -1563.4049814 -0.357273E-03  0.382E-02    2.40       1.0  T
   9  -1563.4052723 -0.290853E-03  0.157E-02    2.41       1.0  T
  10  -1563.4053342 -0.618969E-04  0.603E-03    2.40       1.0  T
  11  -1563.4053382 -0.399739E-05  0.321E-03    2.40       1.1  T
  12  -1563.4053405 -0.237667E-05  0.126E-03    2.40       2.8  T
  13  -1563.4053408 -0.226209E-06  0.658E-04    2.40       5.4  T
  14  -1563.4053408 -0.535299E-07  0.348E-04    2.40      10.3  T

   *** convergence criteria satisfied after 14 iterations ***

         #    Occupation            Energy/Eh            Energy/eV
      -------------------------------------------------------------
         1        2.0000           -0.7728945             -21.0315
       ...           ...                  ...                  ...
      1312        2.0000           -0.3793452             -10.3225
      1313        2.0000           -0.3785424             -10.3007
      1314        2.0000           -0.3783381             -10.2951
      1315        2.0000           -0.3757252             -10.2240
      1316        2.0000           -0.3757046             -10.2234
      1317        2.0000           -0.3753408             -10.2135
      1318        2.0000           -0.3673066              -9.9949 (HOMO)
      1319                         -0.2789814              -7.5915 (LUMO)
      1320                         -0.2768419              -7.5333
      1321                         -0.2741682              -7.4605
      1322                         -0.2740168              -7.4564
      1323                         -0.2736286              -7.4458
       ...                                ...                  ...
      2353                          1.3494609              36.7207
      -------------------------------------------------------------
                  HL-Gap            0.0883252 Eh            2.4035 eV
             Fermi-level           -0.3231440 Eh           -8.7932 eV

 SCC (total)                   0 d,  0 h,  0 min, 13.836 sec
 SCC setup                      ...        0 min,  0.080 sec (  0.580%)
 Dispersion                     ...        0 min,  0.302 sec (  2.185%)
 classical contributions        ...        0 min,  0.004 sec (  0.029%)
 integral evaluation            ...        0 min,  0.667 sec (  4.820%)
 iterations                     ...        0 min, 10.357 sec ( 74.851%)
 molecular gradient             ...        0 min,  2.319 sec ( 16.757%)
 printout                       ...        0 min,  0.108 sec (  0.777%)

         :::::::::::::::::::::::::::::::::::::::::::::::::::::
         ::                     SUMMARY                     ::
         :::::::::::::::::::::::::::::::::::::::::::::::::::::
         :: total energy           -1548.536310204612 Eh    ::
         :: total w/o Gsasa/hb     -1548.287873312537 Eh    ::
         :: gradient norm              0.682094548932 Eh/a0 ::
         :: HOMO-LUMO gap              2.403451198515 eV    ::
         ::.................................................::
         :: SCC energy             -1563.405340826230 Eh    ::
         :: -> isotropic ES            5.499278020918 Eh    ::
         :: -> anisotropic ES         -0.353683759016 Eh    ::
         :: -> anisotropic XC          0.270754252944 Eh    ::
         :: -> dispersion             -1.336756544799 Eh    ::
         :: -> Gsolv                  -1.089399657614 Eh    ::
         ::    -> Gelec               -0.840962765539 Eh    ::
         ::    -> Gsasa                0.070588799080 Eh    ::
         ::    -> Ghb                 -0.320106450852 Eh    ::
         ::    -> Gshift               0.001080759698 Eh    ::
         :: repulsion energy          14.755377700958 Eh    ::
         :: add. restraining           0.000000000000 Eh    ::
         :: total charge               0.000000000000 e     ::
         :::::::::::::::::::::::::::::::::::::::::::::::::::::

           -------------------------------------------------
          |                Property Printout                |
           -------------------------------------------------

    * Orbital Energies and Occupations

         #    Occupation            Energy/Eh            Energy/eV
      -------------------------------------------------------------
         1        2.0000           -0.7728945             -21.0315
       ...           ...                  ...                  ...
      1306        2.0000           -0.3866225             -10.5205
      1307        2.0000           -0.3861936             -10.5089
      1308        2.0000           -0.3853467             -10.4858
      1309        2.0000           -0.3852844             -10.4841
      1310        2.0000           -0.3821578             -10.3990
      1311        2.0000           -0.3814091             -10.3787
      1312        2.0000           -0.3793452             -10.3225
      1313        2.0000           -0.3785424             -10.3007
      1314        2.0000           -0.3783381             -10.2951
      1315        2.0000           -0.3757252             -10.2240
      1316        2.0000           -0.3757046             -10.2234
      1317        2.0000           -0.3753408             -10.2135
      1318        2.0000           -0.3673066              -9.9949 (HOMO)
      1319                         -0.2789814              -7.5915 (LUMO)
      1320                         -0.2768419              -7.5333
      1321                         -0.2741682              -7.4605
      1322                         -0.2740168              -7.4564
      1323                         -0.2736286              -7.4458
      1324                         -0.2722665              -7.4087
      1325                         -0.2722375              -7.4080
      1326                         -0.2693231              -7.3287
      1327                         -0.2688898              -7.3169
      1328                         -0.2682706              -7.3000
      1329                         -0.2681447              -7.2966
       ...                                ...                  ...
      2353                          1.3494609              36.7207
      -------------------------------------------------------------
                  HL-Gap            0.0883252 Eh            2.4035 eV
             Fermi-level           -0.3231440 Eh           -8.7932 eV

 * generalized Born model for continuum solvation

     #   Z     Born rad/Å   SASA/Å²    H-bond
     1   8 O        2.004    20.261    -0.002
     2   6 C        2.340     1.593    -0.000
     3   6 C        2.517     0.186    -0.000
     4   8 O        2.355     8.577    -0.001
     5   6 C        2.603     0.207    -0.000
     6   8 O        2.344     3.800    -0.000
     7   6 C        2.590     0.356    -0.000
     8   6 C        2.700     0.265    -0.000
     9   7 N        2.754     0.245    -0.000
    10   6 C        2.615     3.141    -0.000
    11   7 N        2.390    17.953    -0.001
    12   6 C        2.899     3.201    -0.000
    13   6 C        2.624     4.246    -0.000
    14   8 O        2.141    16.982    -0.002
    15   7 N        2.532     1.915    -0.000
    16   6 C        2.719     4.101    -0.000
    17   7 N        2.248     4.273    -0.000
    18   7 N        2.565     4.585    -0.000
    19   6 C        3.062     2.955    -0.000
    20   1 H        1.831    19.628    -0.033
    21   1 H        1.873     8.874    -0.015
    22   1 H        1.906    17.669    -0.030
    23   1 H        1.969     9.459    -0.016
    24   1 H        2.003     5.216    -0.009
    25   1 H        2.012     0.959    -0.002
    26   1 H        2.029     5.130    -0.009
    27   1 H        1.938    10.307    -0.017
    28   1 H        2.199     1.635    -0.003
    29   1 H        1.895    15.564    -0.026
    30   1 H        1.924     3.459    -0.006
    31   1 H        1.742    16.276    -0.027
    32  15 P        2.759     7.541    -0.002
    33   8 O        2.067    11.453    -0.001
    34   8 O        2.083    24.680    -0.003
    35   8 O        2.299     1.743    -0.000
    36   6 C        2.441     0.304    -0.000
    37   6 C        2.558     0.107    -0.000
    38   8 O        2.421     1.647    -0.000
    39   6 C        2.614     0.107    -0.000
    40   8 O        2.352     3.655    -0.000
    41   6 C        2.585     0.488    -0.000
    42   6 C        2.731     0.006    -0.000
    43   7 N        2.712     0.000     0.000
    44   6 C        2.737     0.000    -0.000
    45   8 O        2.200     6.815    -0.001
    46   7 N        2.554     0.000     0.000
    47   6 C        2.721     0.034    -0.000
    48   8 O        2.215     7.049    -0.001
    49   6 C        2.757     0.229    -0.000
    50   6 C        2.422     2.704    -0.000
    51   6 C        2.768     1.147    -0.000
    52   1 H        1.897    11.537    -0.019
    53   1 H        1.881    14.543    -0.024
    54   1 H        1.943    15.635    -0.026
    55   1 H        1.975     8.745    -0.015
    56   1 H        1.990     9.820    -0.016
    57   1 H        2.000     2.020    -0.003
    58   1 H        2.033     3.969    -0.007
    59   1 H        2.228     0.000     0.000
    60   1 H        1.870    20.871    -0.035
    61   1 H        1.910     8.539    -0.014
    62   1 H        1.884    13.293    -0.022
    63   1 H        2.036     3.783    -0.006
    64  15 P        2.763     6.822    -0.001
    65   8 O        2.070    10.821    -0.001
    66   8 O        2.084    25.075    -0.003
    67   8 O        2.298     1.667    -0.000
    68   6 C        2.440     0.319    -0.000
    69   6 C        2.560     0.091    -0.000
    70   8 O        2.418     3.498    -0.000
    71   6 C        2.618     0.040    -0.000
    72   8 O        2.351     3.518    -0.000
    73   6 C        2.597     0.272    -0.000
    74   6 C        2.734     0.332    -0.000
    75   7 N        2.832     0.021    -0.000
    76   6 C        2.724     1.117    -0.000
    77   7 N        2.539     5.503    -0.000
    78   6 C        3.110     0.018    -0.000
    79   6 C        2.787     0.013    -0.000
    80   8 O        2.244     5.076    -0.001
    81   7 N        2.682     0.000    -0.000
    82   6 C        2.816     0.102    -0.000
    83   7 N        2.297     0.560    -0.000
    84   7 N        2.608     3.758    -0.000
    85   6 C        3.192     0.411    -0.000
    86   1 H        1.894    12.514    -0.021
    87   1 H        1.883    14.666    -0.025
    88   1 H        1.949    14.971    -0.025
    89   1 H        1.981     8.246    -0.014
    90   1 H        1.996     9.429    -0.016
    91   1 H        2.022     0.454    -0.001
    92   1 H        2.044     6.743    -0.011
    93   1 H        1.995     6.920    -0.012
    94   1 H        2.332     0.000     0.000
    95   1 H        1.909    20.106    -0.034
    96   1 H        1.976     1.944    -0.003
    97  15 P        2.767     7.061    -0.001
    98   8 O        2.071    11.192    -0.001
    99   8 O        2.085    25.523    -0.003
   100   8 O        2.307     1.629    -0.000
   101   6 C        2.449     0.347    -0.000
   102   6 C        2.571     0.098    -0.000
   103   8 O        2.432     2.362    -0.000
   104   6 C        2.629     0.172    -0.000
   105   8 O        2.383     3.044    -0.000
   106   6 C        2.606     0.801    -0.000
   107   6 C        2.768     0.039    -0.000
   108   7 N        2.727     0.115    -0.000
   109   6 C        2.798     0.008    -0.000
   110   8 O        2.282     3.254    -0.000
   111   7 N        2.638     0.000     0.000
   112   6 C        2.788     0.578    -0.000
   113   7 N        2.296     0.679    -0.000
   114   6 C        2.680     4.156    -0.000
   115   6 C        2.702     3.458    -0.000
   116   1 H        1.903    11.824    -0.020
   117   1 H        1.884    14.651    -0.025
   118   1 H        1.950    15.707    -0.026
   119   1 H        1.972    10.027    -0.017
   120   1 H        1.994     9.654    -0.016
   121   1 H        2.021     6.064    -0.010
   122   1 H        2.096     2.428    -0.004
   123   1 H        1.903    14.713    -0.025
   124   1 H        1.972     1.266    -0.002
   125   1 H        1.970    15.492    -0.026
   126   1 H        2.006     7.042    -0.012
   127  15 P        2.801     6.993    -0.001
   128   7 N        2.649     0.000    -0.000
   129   6 C        2.815     0.019    -0.000
   130   7 N        2.295     0.471    -0.000
   131   7 N        2.621     4.367    -0.000
   132   6 C        3.250     0.000    -0.000
   133   6 C        3.128     0.025    -0.000
   134   6 C        2.769     0.023    -0.000
   135   8 O        2.227     6.973    -0.001
   136   7 N        2.621     1.819    -0.000
   137   6 C        3.036     0.250    -0.000
   138   7 N        3.090     0.366    -0.000
   139   6 C        2.758     0.860    -0.000
   140   6 C        2.667     0.207    -0.000
   141   8 O        2.095     7.617    -0.001
   142   6 C        2.717     0.162    -0.000
   143   8 O        2.356     6.618    -0.001
   144   6 C        2.705     0.244    -0.000
   145   8 O        2.428    14.480    -0.002
   146   6 C        2.772     0.001    -0.000
   147   8 O        2.416     0.850    -0.000
   148   8 O        2.091    26.002    -0.003
   149   1 H        2.143     0.000    -0.000
   150   1 H        1.976    15.686    -0.026
   151   1 H        2.000     6.806    -0.011
   152   1 H        2.127     0.101    -0.000
   153   1 H        1.953     3.674    -0.006
   154   1 H        1.909    18.065    -0.030
   155   1 H        2.098     0.386    -0.001
   156   1 H        1.952    10.386    -0.017
   157   1 H        2.085     6.551    -0.011
   158  15 P        2.782     7.019    -0.001
   159   8 O        2.074    10.919    -0.001
   160   8 O        2.093    22.642    -0.003
   161   8 O        2.351     0.525    -0.000
   162   6 C        2.460     0.342    -0.000
   163   6 C        2.564     0.110    -0.000
   164   8 O        2.413     5.982    -0.001
   165   6 C        2.621     0.168    -0.000
   166   8 O        2.352     3.728    -0.000
   167   6 C        2.612     0.312    -0.000
   168   6 C        2.732     0.251    -0.000
   169   7 N        2.714     0.006    -0.000
   170   6 C        2.715     0.228    -0.000
   171   8 O        2.195     8.895    -0.001
   172   7 N        2.525     0.000    -0.000
   173   6 C        2.709     0.462    -0.000
   174   8 O        2.214     7.614    -0.001
   175   6 C        2.766     0.941    -0.000
   176   6 C        2.446     2.498    -0.000
   177   6 C        2.790     1.070    -0.000
   178   1 H        1.904    10.304    -0.017
   179   1 H        1.888    13.503    -0.023
   180   1 H        1.935    16.986    -0.029
   181   1 H        1.979     9.253    -0.016
   182   1 H        2.018     9.577    -0.016
   183   1 H        2.027     0.829    -0.001
   184   1 H        2.024     4.612    -0.008
   185   1 H        2.181     0.003    -0.000
   186   1 H        1.877    21.143    -0.036
   187   1 H        1.944     4.987    -0.008
   188   1 H        1.908     7.512    -0.013
   189   1 H        2.083     0.988    -0.002
   190  15 P        2.767    10.087    -0.002
   191   8 O        2.069    16.543    -0.002
   192   8 O        2.085    25.829    -0.003
   193   8 O        2.310     1.364    -0.000
   194   6 C        2.452     0.307    -0.000
   195   6 C        2.567     0.086    -0.000
   196   8 O        2.432     1.963    -0.000
   197   6 C        2.624     0.069    -0.000
   198   8 O        2.357     3.525    -0.000
   199   6 C        2.613     0.196    -0.000
   200   6 C        2.746     0.164    -0.000
   201   7 N        2.848     0.001    -0.000
   202   6 C        2.723     0.569    -0.000
   203   7 N        2.500    10.033    -0.001
   204   6 C        3.070     0.073    -0.000
   205   6 C        2.753     0.088    -0.000
   206   8 O        2.215     8.708    -0.001
   207   7 N        2.690     0.000     0.000
   208   6 C        2.884     0.000    -0.000
   209   7 N        2.346     0.059    -0.000
   210   7 N        2.667     1.310    -0.000
   211   6 C        3.218     0.001    -0.000
   212   1 H        1.906     9.595    -0.016
   213   1 H        1.886    11.496    -0.019
   214   1 H        1.945    15.905    -0.027
   215   1 H        1.982     8.635    -0.015
   216   1 H        2.011     6.090    -0.010
   217   1 H        2.032     0.328    -0.001
   218   1 H        2.047     6.069    -0.010
   219   1 H        2.007     5.240    -0.009
   220   1 H        2.321     0.000     0.000
   221   1 H        1.948    10.919    -0.018
   222   1 H        2.000     0.953    -0.002
   223  15 P        2.770     9.663    -0.002
   224   8 O        2.071    16.610    -0.002
   225   8 O        2.088    25.692    -0.003
   226   8 O        2.309     1.383    -0.000
   227   6 C        2.454     0.296    -0.000
   228   6 C        2.573     0.095    -0.000
   229   8 O        2.455     1.091    -0.000
   230   6 C        2.624     0.092    -0.000
   231   8 O        2.349     4.131    -0.000
   232   6 C        2.625     0.087    -0.000
   233   6 C        2.762     0.000    -0.000
   234   7 N        2.780     0.000     0.000
   235   6 C        2.791     0.000    -0.000
   236   8 O        2.248     4.421    -0.000
   237   7 N        2.583     0.000    -0.000
   238   6 C        2.745     0.000     0.000
   239   8 O        2.221     6.112    -0.001
   240   6 C        2.808     0.000     0.000
   241   6 C        2.455     2.091    -0.000
   242   6 C        2.829     0.003    -0.000
   243   1 H        1.906    10.704    -0.018
   244   1 H        1.890    10.661    -0.018
   245   1 H        1.951    15.561    -0.026
   246   1 H        1.985     8.664    -0.015
   247   1 H        2.028     4.385    -0.007
   248   1 H        2.048     0.143    -0.000
   249   1 H        2.037     4.267    -0.007
   250   1 H        2.255     0.000     0.000
   251   1 H        1.882    16.652    -0.028
   252   1 H        1.947     7.303    -0.012
   253   1 H        1.914     9.128    -0.015
   254   1 H        2.072     1.916    -0.003
   255  15 P        2.766     9.840    -0.002
   256   8 O        2.068    16.575    -0.002
   257   8 O        2.086    25.691    -0.003
   258   8 O        2.303     2.192    -0.000
   259   6 C        2.446     0.308    -0.000
   260   6 C        2.570     0.083    -0.000
   261   8 O        2.452     1.081    -0.000
   262   6 C        2.621     0.036    -0.000
   263   8 O        2.342     4.427    -0.000
   264   6 C        2.618     0.066    -0.000
   265   6 C        2.743     0.020    -0.000
   266   7 N        2.747     0.000     0.000
   267   6 C        2.752     0.000     0.000
   268   8 O        2.233     4.165    -0.000
   269   7 N        2.559     0.000     0.000
   270   6 C        2.724     0.000     0.000
   271   8 O        2.206     6.774    -0.001
   272   6 C        2.789     0.000    -0.000
   273   6 C        2.440     2.160    -0.000
   274   6 C        2.811     0.001    -0.000
   275   1 H        1.906    10.824    -0.018
   276   1 H        1.879    12.327    -0.021
   277   1 H        1.954    15.384    -0.026
   278   1 H        1.990     7.980    -0.013
   279   1 H        2.025     3.894    -0.007
   280   1 H        2.042     0.037    -0.000
   281   1 H        2.023     7.105    -0.012
   282   1 H        2.263     0.000     0.000
   283   1 H        1.898    11.947    -0.020
   284   1 H        1.877    16.352    -0.027
   285   1 H        1.930     5.865    -0.010
   286   1 H        2.065     2.916    -0.005
   287  15 P        2.766     9.744    -0.002
   288   8 O        2.069    16.620    -0.002
   289   8 O        2.085    25.892    -0.003
   290   8 O        2.304     1.886    -0.000
   291   6 C        2.444     0.322    -0.000
   292   6 C        2.564     0.095    -0.000
   293   8 O        2.429     2.387    -0.000
   294   6 C        2.615     0.060    -0.000
   295   8 O        2.339     4.546    -0.001
   296   6 C        2.608     0.021    -0.000
   297   6 C        2.724     0.161    -0.000
   298   7 N        2.712     0.000    -0.000
   299   6 C        2.732     0.000    -0.000
   300   8 O        2.221     5.654    -0.001
   301   7 N        2.543     0.000     0.000
   302   6 C        2.702     0.304    -0.000
   303   8 O        2.201     7.297    -0.001
   304   6 C        2.762     0.722    -0.000
   305   6 C        2.438     2.646    -0.000
   306   6 C        2.777     0.970    -0.000
   307   1 H        1.901    11.881    -0.020
   308   1 H        1.881    11.737    -0.020
   309   1 H        1.950    15.303    -0.026
   310   1 H        1.985     8.132    -0.014
   311   1 H        2.010     8.774    -0.015
   312   1 H        2.036     0.012    -0.000
   313   1 H        2.013     8.068    -0.014
   314   1 H        2.263     0.000     0.000
   315   1 H        1.945     3.438    -0.006
   316   1 H        1.898    11.559    -0.019
   317   1 H        1.871    21.608    -0.036
   318   1 H        2.053     3.089    -0.005
   319  15 P        2.766     9.605    -0.002
   320   8 O        2.069    16.557    -0.002
   321   8 O        2.086    25.739    -0.003
   322   8 O        2.310     0.793    -0.000
   323   6 C        2.446     0.353    -0.000
   324   6 C        2.559     0.136    -0.000
   325   8 O        2.406     4.981    -0.001
   326   6 C        2.613     0.196    -0.000
   327   8 O        2.343     4.508    -0.001
   328   6 C        2.614     0.116    -0.000
   329   6 C        2.729     0.513    -0.000
   330   7 N        2.829     0.017    -0.000
   331   6 C        2.726     0.256    -0.000
   332   7 N        2.512     7.196    -0.000
   333   6 C        3.074     0.008    -0.000
   334   6 C        2.752     0.024    -0.000
   335   8 O        2.216     6.588    -0.001
   336   7 N        2.657     0.000     0.000
   337   6 C        2.820     0.006    -0.000
   338   7 N        2.296     0.401    -0.000
   339   7 N        2.618     2.435    -0.000
   340   6 C        3.183     0.027    -0.000
   341   1 H        1.897    11.725    -0.020
   342   1 H        1.884    10.623    -0.018
   343   1 H        1.937    16.031    -0.027
   344   1 H        1.975     9.685    -0.016
   345   1 H        2.015     5.407    -0.009
   346   1 H        2.036     0.183    -0.000
   347   1 H        2.043     5.084    -0.009
   348   1 H        2.006     4.735    -0.008
   349   1 H        2.280     0.000    -0.000
   350   1 H        1.912    16.044    -0.027
   351   1 H        1.963     2.153    -0.004
   352  15 P        2.766     9.424    -0.002
   353   8 O        2.067    16.690    -0.002
   354   8 O        2.086    25.324    -0.003
   355   8 O        2.322     0.369    -0.000
   356   6 C        2.451     0.422    -0.000
   357   6 C        2.536     0.142    -0.000
   358   8 O        2.426     0.772    -0.000
   359   6 C        2.483     0.352    -0.000
   360   8 O        2.049    15.206    -0.002
   361   6 C        2.512     1.121    -0.000
   362   6 C        2.686     0.001    -0.000
   363   7 N        2.668     0.198    -0.000
   364   6 C        2.639     3.436    -0.000
   365   8 O        2.142    15.355    -0.002
   366   7 N        2.448     1.970    -0.000
   367   6 C        2.630     3.827    -0.000
   368   8 O        2.147    14.840    -0.002
   369   6 C        2.727     2.019    -0.000
   370   6 C        2.426     2.639    -0.000
   371   6 C        2.759     2.243    -0.000
   372   1 H        1.905     9.256    -0.016
   373   1 H        1.885     9.937    -0.017
   374   1 H        1.920    15.327    -0.026
   375   1 H        1.921    12.546    -0.021
   376   1 H        1.730    22.142    -0.037
   377   1 H        1.971    11.063    -0.019
   378   1 H        1.905    18.314    -0.031
   379   1 H        1.988     8.811    -0.015
   380   1 H        2.157     2.381    -0.004
   381   1 H        1.906     8.528    -0.014
   382   1 H        1.858    21.484    -0.036
   383   1 H        1.926     8.857    -0.015
   384   1 H        2.058     1.590    -0.003
   385   8 O        1.995    20.443    -0.002
   386   6 C        2.322     1.548    -0.000
   387   6 C        2.509     0.104    -0.000
   388   8 O        2.350     6.484    -0.001
   389   6 C        2.597     0.161    -0.000
   390   8 O        2.345     3.536    -0.000
   391   6 C        2.571     0.325    -0.000
   392   6 C        2.683     0.327    -0.000
   393   7 N        2.728     0.439    -0.000
   394   6 C        2.601     6.495    -0.001
   395   7 N        2.397    15.340    -0.001
   396   6 C        2.986     3.036    -0.000
   397   6 C        2.761     3.565    -0.000
   398   7 N        2.240     3.529    -0.000
   399   7 N        2.523     2.052    -0.000
   400   6 C        2.619     5.490    -0.001
   401   7 N        2.457     7.481    -0.001
   402   6 C        3.038     3.026    -0.000
   403   1 H        1.828    19.896    -0.033
   404   1 H        1.848    13.455    -0.023
   405   1 H        1.910    16.938    -0.028
   406   1 H        1.967     9.278    -0.016
   407   1 H        1.979     9.830    -0.017
   408   1 H        1.999     1.500    -0.003
   409   1 H        2.023     5.317    -0.009
   410   1 H        1.923    14.988    -0.025
   411   1 H        1.877    20.128    -0.034
   412   1 H        1.925     2.375    -0.004
   413   1 H        1.962    11.661    -0.020
   414   1 H        1.730    19.273    -0.032
   415  15 P        2.761     9.873    -0.002
   416   8 O        2.066    16.483    -0.002
   417   8 O        2.088    24.270    -0.003
   418   8 O        2.296     1.479    -0.000
   419   6 C        2.439     0.316    -0.000
   420   6 C        2.554     0.091    -0.000
   421   8 O        2.412     3.006    -0.000
   422   6 C        2.612     0.038    -0.000
   423   8 O        2.348     3.714    -0.000
   424   6 C        2.587     0.347    -0.000
   425   6 C        2.717     0.171    -0.000
   426   7 N        2.703     0.000    -0.000
   427   6 C        2.753     0.001    -0.000
   428   8 O        2.226     4.740    -0.001
   429   7 N        2.623     0.000     0.000
   430   6 C        2.787     0.011    -0.000
   431   7 N        2.296     0.068    -0.000
   432   6 C        2.673     2.525    -0.000
   433   6 C        2.696     1.489    -0.000
   434   1 H        1.893    11.406    -0.019
   435   1 H        1.882    10.832    -0.018
   436   1 H        1.941    15.584    -0.026
   437   1 H        1.978     8.422    -0.014
   438   1 H        1.992    10.058    -0.017
   439   1 H        2.009     0.877    -0.001
   440   1 H        2.017     5.909    -0.010
   441   1 H        1.900    16.326    -0.027
   442   1 H        1.975     1.360    -0.002
   443   1 H        1.965    15.118    -0.025
   444   1 H        2.003     5.578    -0.009
   445  15 P        2.762     9.695    -0.002
   446   8 O        2.069    16.357    -0.002
   447   8 O        2.083    25.767    -0.003
   448   8 O        2.300     1.761    -0.000
   449   6 C        2.442     0.286    -0.000
   450   6 C        2.562     0.076    -0.000
   451   8 O        2.419     2.458    -0.000
   452   6 C        2.615     0.030    -0.000
   453   8 O        2.351     3.261    -0.000
   454   6 C        2.590     0.316    -0.000
   455   6 C        2.732     0.053    -0.000
   456   7 N        2.825     0.001    -0.000
   457   6 C        2.703     3.237    -0.000
   458   7 N        2.512     9.284    -0.001
   459   6 C        3.182     0.031    -0.000
   460   6 C        2.928     0.000    -0.000
   461   7 N        2.323     0.081    -0.000
   462   7 N        2.688     0.000     0.000
   463   6 C        2.771     0.188    -0.000
   464   7 N        2.555     3.237    -0.000
   465   6 C        3.200     0.000    -0.000
   466   1 H        1.898    11.533    -0.019
   467   1 H        1.883    11.138    -0.019
   468   1 H        1.950    14.891    -0.025
   469   1 H        1.977     8.852    -0.015
   470   1 H        1.991    10.967    -0.018
   471   1 H        2.010     0.713    -0.001
   472   1 H        2.046     5.101    -0.009
   473   1 H        1.981     8.180    -0.014
   474   1 H        1.938    12.024    -0.020
   475   1 H        1.979     0.959    -0.002
   476   1 H        2.050     8.305    -0.014
   477  15 P        2.764     7.430    -0.001
   478   8 O        2.070    12.869    -0.001
   479   8 O        2.084    25.579    -0.003
   480   8 O        2.301     2.215    -0.000
   481   6 C        2.448     0.332    -0.000
   482   6 C        2.570     0.085    -0.000
   483   8 O        2.440     2.188    -0.000
   484   6 C        2.618     0.042    -0.000
   485   8 O        2.352     3.261    -0.000
   486   6 C        2.599     0.140    -0.000
   487   6 C        2.742     0.148    -0.000
   488   7 N        2.842     0.000     0.000
   489   6 C        2.700     3.060    -0.000
   490   7 N        2.498    10.392    -0.001
   491   6 C        3.193     0.000    -0.000
   492   6 C        2.928     0.000     0.000
   493   7 N        2.317     0.091    -0.000
   494   7 N        2.667     0.000     0.000
   495   6 C        2.748     0.193    -0.000
   496   7 N        2.551     4.526    -0.000
   497   6 C        3.226     0.002    -0.000
   498   1 H        1.905    10.920    -0.018
   499   1 H        1.885    13.984    -0.023
   500   1 H        1.957    14.759    -0.025
   501   1 H        1.980     8.824    -0.015
   502   1 H        1.994    10.615    -0.018
   503   1 H        2.030     0.122    -0.000
   504   1 H        2.048     6.798    -0.011
   505   1 H        1.972    10.048    -0.017
   506   1 H        1.924    15.538    -0.026
   507   1 H        1.978     1.046    -0.002
   508   1 H        2.044     6.100    -0.010
   509  15 P        2.768     6.909    -0.001
   510   8 O        2.071    11.344    -0.001
   511   8 O        2.088    24.985    -0.003
   512   8 O        2.306     1.285    -0.000
   513   6 C        2.449     0.318    -0.000
   514   6 C        2.565     0.093    -0.000
   515   8 O        2.425     5.053    -0.001
   516   6 C        2.615     0.140    -0.000
   517   8 O        2.350     3.748    -0.000
   518   6 C        2.610     0.353    -0.000
   519   6 C        2.749     0.238    -0.000
   520   7 N        2.865     0.005    -0.000
   521   6 C        2.721     0.936    -0.000
   522   7 N        2.519     7.421    -0.001
   523   6 C        3.236     0.000    -0.000
   524   6 C        2.945     0.000     0.000
   525   7 N        2.328     0.083    -0.000
   526   7 N        2.659     0.000    -0.000
   527   6 C        2.741     0.124    -0.000
   528   7 N        2.561     4.647    -0.000
   529   6 C        3.254     0.089    -0.000
   530   1 H        1.901    11.433    -0.019
   531   1 H        1.886    14.137    -0.024
   532   1 H        1.943    16.013    -0.027
   533   1 H        1.971    10.211    -0.017
   534   1 H        2.008     8.539    -0.014
   535   1 H        2.023     1.646    -0.003
   536   1 H        2.057     4.222    -0.007
   537   1 H        1.987     7.743    -0.013
   538   1 H        1.934    13.785    -0.023
   539   1 H        1.983     1.330    -0.002
   540   1 H        2.021     4.810    -0.008
   541  15 P        2.767     7.243    -0.001
   542   8 O        2.069    11.975    -0.001
   543   8 O        2.085    25.402    -0.003
   544   8 O        2.308     1.741    -0.000
   545   6 C        2.455     0.343    -0.000
   546   6 C        2.576     0.067    -0.000
   547   8 O        2.466     1.328    -0.000
   548   6 C        2.627     0.081    -0.000
   549   8 O        2.355     3.943    -0.000
   550   6 C        2.607     0.310    -0.000
   551   6 C        2.753     0.020    -0.000
   552   7 N        2.762     0.000     0.000
   553   6 C        2.806     0.000     0.000
   554   8 O        2.264     2.642    -0.000
   555   7 N        2.660     0.000     0.000
   556   6 C        2.821     0.158    -0.000
   557   7 N        2.304     0.277    -0.000
   558   6 C        2.724     3.566    -0.000
   559   6 C        2.750     1.864    -0.000
   560   1 H        1.913     9.948    -0.017
   561   1 H        1.887    14.710    -0.025
   562   1 H        1.954    15.635    -0.026
   563   1 H        1.987     8.072    -0.014
   564   1 H        2.005    10.021    -0.017
   565   1 H        2.023     0.572    -0.001
   566   1 H        2.032     5.614    -0.009
   567   1 H        1.908    17.252    -0.029
   568   1 H        1.976     1.970    -0.003
   569   1 H        1.993    13.161    -0.022
   570   1 H        2.038     4.312    -0.007
   571  15 P        2.770     6.967    -0.001
   572   8 O        2.072    11.611    -0.001
   573   8 O        2.086    26.096    -0.003
   574   8 O        2.314     1.146    -0.000
   575   6 C        2.455     0.378    -0.000
   576   6 C        2.573     0.155    -0.000
   577   8 O        2.437     2.105    -0.000
   578   6 C        2.631     0.155    -0.000
   579   8 O        2.357     3.834    -0.000
   580   6 C        2.621     0.343    -0.000
   581   6 C        2.757     0.017    -0.000
   582   7 N        2.874     0.000     0.000
   583   6 C        2.757     0.206    -0.000
   584   7 N        2.557     5.445    -0.000
   585   6 C        3.234     0.000     0.000
   586   6 C        2.917     0.000     0.000
   587   7 N        2.317     0.091    -0.000
   588   7 N        2.631     0.002    -0.000
   589   6 C        2.731     0.219    -0.000
   590   7 N        2.548     3.613    -0.000
   591   6 C        3.237     0.000     0.000
   592   1 H        1.907    10.460    -0.018
   593   1 H        1.889    14.779    -0.025
   594   1 H        1.949    15.878    -0.027
   595   1 H        1.988     8.024    -0.013
   596   1 H        2.019     4.897    -0.008
   597   1 H        2.038     0.572    -0.001
   598   1 H        2.057     4.734    -0.008
   599   1 H        2.008     3.935    -0.007
   600   1 H        1.939    12.112    -0.020
   601   1 H        1.972     1.159    -0.002
   602   1 H        2.019    10.068    -0.017
   603  15 P        2.769     7.410    -0.001
   604   8 O        2.071    11.692    -0.001
   605   8 O        2.084    26.142    -0.003
   606   8 O        2.309     2.419    -0.000
   607   6 C        2.455     0.364    -0.000
   608   6 C        2.589     0.098    -0.000
   609   8 O        2.480     0.358    -0.000
   610   6 C        2.639     0.040    -0.000
   611   8 O        2.354     3.758    -0.000
   612   6 C        2.650     0.000     0.000
   613   6 C        2.766     0.002    -0.000
   614   7 N        2.761     0.000     0.000
   615   6 C        2.774     0.000    -0.000
   616   8 O        2.290     0.023    -0.000
   617   7 N        2.499     0.000    -0.000
   618   6 C        2.652     0.429    -0.000
   619   8 O        2.146    15.247    -0.002
   620   6 C        2.731     1.469    -0.000
   621   6 C        2.406     2.775    -0.000
   622   6 C        2.780     1.288    -0.000
   623   1 H        1.916    10.816    -0.018
   624   1 H        1.884    15.073    -0.025
   625   1 H        1.977    13.736    -0.023
   626   1 H        2.001     8.109    -0.014
   627   1 H        2.064     3.802    -0.006
   628   1 H        2.064     0.294    -0.000
   629   1 H        2.040     5.760    -0.010
   630   1 H        2.051     0.259    -0.000
   631   1 H        1.878    14.790    -0.025
   632   1 H        1.863    21.248    -0.036
   633   1 H        1.881    13.822    -0.023
   634   1 H        2.048     3.767    -0.006
   635  15 P        2.782     6.665    -0.001
   636   8 O        2.072    11.758    -0.001
   637   8 O        2.101    21.726    -0.002
   638   8 O        2.343     0.249    -0.000
   639   6 C        2.461     0.354    -0.000
   640   6 C        2.564     0.178    -0.000
   641   8 O        2.403     4.253    -0.000
   642   6 C        2.619     0.249    -0.000
   643   8 O        2.346     4.364    -0.000
   644   6 C        2.620     0.391    -0.000
   645   6 C        2.752     0.016    -0.000
   646   7 N        2.866     0.000     0.000
   647   6 C        2.735     0.709    -0.000
   648   7 N        2.516     6.805    -0.000
   649   6 C        3.121     0.000    -0.000
   650   6 C        2.784     0.001    -0.000
   651   8 O        2.237     5.092    -0.001
   652   7 N        2.683     0.000     0.000
   653   6 C        2.881     0.000     0.000
   654   7 N        2.358     0.265    -0.000
   655   7 N        2.674     1.098    -0.000
   656   6 C        3.245     0.000    -0.000
   657   1 H        1.901    11.753    -0.020
   658   1 H        1.892    13.482    -0.023
   659   1 H        1.931    17.367    -0.029
   660   1 H        1.978     9.794    -0.016
   661   1 H        2.024     7.613    -0.013
   662   1 H        2.027     1.409    -0.002
   663   1 H        2.058     3.304    -0.006
   664   1 H        2.017     3.529    -0.006
   665   1 H        2.311     0.000     0.000
   666   1 H        1.961    11.301    -0.019
   667   1 H        2.020     1.463    -0.002
   668  15 P        2.765    10.147    -0.002
   669   8 O        2.068    16.606    -0.002
   670   8 O        2.083    25.842    -0.003
   671   8 O        2.307     1.608    -0.000
   672   6 C        2.452     0.315    -0.000
   673   6 C        2.569     0.134    -0.000
   674   8 O        2.448     1.683    -0.000
   675   6 C        2.620     0.039    -0.000
   676   8 O        2.350     3.841    -0.000
   677   6 C        2.598     0.291    -0.000
   678   6 C        2.741     0.009    -0.000
   679   7 N        2.749    -0.002     0.000
   680   6 C        2.806     0.000    -0.000
   681   8 O        2.265     2.720    -0.000
   682   7 N        2.669     0.000     0.000
   683   6 C        2.836     0.269    -0.000
   684   7 N        2.316     0.557    -0.000
   685   6 C        2.739     3.679    -0.000
   686   6 C        2.749     1.978    -0.000
   687   1 H        1.909    10.359    -0.017
   688   1 H        1.885    11.549    -0.019
   689   1 H        1.950    15.586    -0.026
   690   1 H        1.983     8.251    -0.014
   691   1 H        1.998    10.616    -0.018
   692   1 H        2.015     0.921    -0.002
   693   1 H        2.028     5.200    -0.009
   694   1 H        1.923    15.297    -0.026
   695   1 H        1.986     1.545    -0.003
   696   1 H        2.010    11.789    -0.020
   697   1 H        2.040     4.041    -0.007
   698  15 P        2.766     9.802    -0.002
   699   8 O        2.070    16.563    -0.002
   700   8 O        2.085    25.709    -0.003
   701   8 O        2.307     1.383    -0.000
   702   6 C        2.445     0.336    -0.000
   703   6 C        2.561     0.117    -0.000
   704   8 O        2.424     2.731    -0.000
   705   6 C        2.613     0.059    -0.000
   706   8 O        2.337     4.235    -0.000
   707   6 C        2.603     0.155    -0.000
   708   6 C        2.728     0.082    -0.000
   709   7 N        2.849     0.000    -0.000
   710   6 C        2.733     0.754    -0.000
   711   7 N        2.544     5.703    -0.000
   712   6 C        3.234     0.000     0.000
   713   6 C        2.929     0.000     0.000
   714   7 N        2.324     0.252    -0.000
   715   7 N        2.640     0.000     0.000
   716   6 C        2.720     0.410    -0.000
   717   7 N        2.540     4.162    -0.000
   718   6 C        3.229     0.001    -0.000
   719   1 H        1.898    11.538    -0.019
   720   1 H        1.885    11.115    -0.019
   721   1 H        1.944    15.656    -0.026
   722   1 H        1.985     7.739    -0.013
   723   1 H        2.003     8.296    -0.014
   724   1 H        2.038     0.151    -0.000
   725   1 H        2.032     7.264    -0.012
   726   1 H        1.997     6.685    -0.011
   727   1 H        1.952    10.049    -0.017
   728   1 H        1.976     1.344    -0.002
   729   1 H        2.007    10.028    -0.017
   730  15 P        2.757    10.319    -0.002
   731   8 O        2.065    16.678    -0.002
   732   8 O        2.079    26.204    -0.003
   733   8 O        2.308     0.852    -0.000
   734   6 C        2.434     0.430    -0.000
   735   6 C        2.533     0.184    -0.000
   736   8 O        2.416     2.356    -0.000
   737   6 C        2.481     0.343    -0.000
   738   8 O        2.043    16.754    -0.002
   739   6 C        2.495     0.948    -0.000
   740   6 C        2.666     0.025    -0.000
   741   7 N        2.661     0.019    -0.000
   742   6 C        2.676     3.526    -0.000
   743   8 O        2.177    10.676    -0.001
   744   7 N        2.525     3.315    -0.000
   745   6 C        2.736     3.738    -0.000
   746   7 N        2.265     3.732    -0.000
   747   6 C        2.682     4.760    -0.000
   748   6 C        2.692     2.759    -0.000
   749   1 H        1.897    11.172    -0.019
   750   1 H        1.870     8.923    -0.015
   751   1 H        1.934    15.681    -0.026
   752   1 H        1.940    10.557    -0.018
   753   1 H        1.737    19.398    -0.033
   754   1 H        1.939    15.867    -0.027
   755   1 H        1.905    17.439    -0.029
   756   1 H        1.973    10.755    -0.018
   757   1 H        1.896    16.399    -0.028
   758   1 H        1.929     4.204    -0.007
   759   1 H        1.985    12.230    -0.021
   760   1 H        2.017     5.172    -0.009
   761   1 H        1.750    26.753    -0.045
   762   1 H        1.752    26.839    -0.045
   763   1 H        1.753    26.914    -0.045
   764   1 H        1.762    26.742    -0.045
   765   1 H        1.754    26.859    -0.045
   766   1 H        1.775    17.617    -0.030
   767   1 H        1.779    17.158    -0.029
   768   1 H        1.775    17.753    -0.030
   769   1 H        1.777    17.396    -0.029
   770   1 H        1.777    17.148    -0.029
   771   1 H        1.775    17.005    -0.029
   772   1 H        1.774    17.394    -0.029
   773   1 H        1.776    17.242    -0.029
   774   1 H        1.755    25.440    -0.043
   775   1 H        1.753    26.871    -0.045
   776   1 H        1.753    26.811    -0.045
   777   1 H        1.755    26.841    -0.045
   778   1 H        1.754    26.834    -0.045
   779   1 H        1.754    26.890    -0.045
   780   1 H        1.777    17.349    -0.029
   781   1 H        1.780    16.841    -0.028
   782   1 H        1.775    17.010    -0.029

 total SASA / Å² :     4751.907

     #   Z          covCN         q      C6AA      α(0)
     1   8 O        1.655    -0.487    22.621     6.421
     2   6 C        3.675     0.059    19.802     6.376
     3   6 C        3.781     0.087    19.159     6.235
     4   8 O        1.699    -0.335    19.615     5.980
     5   6 C        3.958     0.112    18.683     6.142
     6   8 O        1.658    -0.351    19.929     6.026
     7   6 C        3.821    -0.090    22.202     6.705
     8   6 C        3.713     0.168    18.017     6.065
     9   7 N        2.820    -0.069    22.582     7.058
    10   6 C        3.150     0.095    25.641     8.283
    11   7 N        1.873    -0.294    28.484     7.911
    12   6 C        3.195    -0.015    27.850     8.604
    13   6 C        2.772     0.264    22.549     7.777
    14   8 O        0.860    -0.518    24.194     6.595
    15   7 N        2.710    -0.192    25.166     7.451
    16   6 C        2.844     0.246    22.889     7.841
    17   7 N        2.670    -0.262    26.782     7.686
    18   7 N        1.851    -0.376    30.679     8.209
    19   6 C        3.108     0.123    25.170     8.220
    20   1 H        0.924     0.074     2.042     2.235
    21   1 H        0.925     0.041     2.430     2.438
    22   1 H        0.924     0.085     1.927     2.171
    23   1 H        0.924     0.063     2.161     2.299
    24   1 H        0.924     0.079     1.991     2.206
    25   1 H        0.925     0.077     2.010     2.217
    26   1 H        0.924     0.078     2.002     2.213
    27   1 H        0.926     0.066     2.129     2.282
    28   1 H        0.855     0.243     0.910     1.495
    29   1 H        0.860     0.242     0.914     1.498
    30   1 H        0.859     0.244     0.907     1.492
    31   1 H        0.805     0.351     0.586     1.202
    32  15 P        3.763     0.756   130.785    20.543
    33   8 O        1.614    -0.399    20.851     6.163
    34   8 O        0.808    -0.599    26.118     6.851
    35   8 O        1.657    -0.338    19.684     5.989
    36   6 C        3.898     0.058    19.552     6.286
    37   6 C        3.803     0.093    19.051     6.214
    38   8 O        1.701    -0.323    19.398     5.946
    39   6 C        3.936     0.111    18.711     6.147
    40   8 O        1.657    -0.352    19.938     6.028
    41   6 C        3.819    -0.088    22.153     6.698
    42   6 C        3.751     0.172    17.909     6.035
    43   7 N        2.736    -0.065    22.493     7.044
    44   6 C        2.700     0.325    21.479     7.585
    45   8 O        0.859    -0.499    23.754     6.535
    46   7 N        2.691    -0.185    25.016     7.428
    47   6 C        2.762     0.282    22.223     7.720
    48   8 O        0.859    -0.468    23.085     6.442
    49   6 C        2.949    -0.029    28.718     8.789
    50   6 C        3.755    -0.127    22.989     6.837
    51   6 C        2.845     0.024    27.463     8.589
    52   1 H        0.924     0.087     1.912     2.163
    53   1 H        0.925     0.087     1.913     2.163
    54   1 H        0.924     0.090     1.874     2.141
    55   1 H        0.924     0.073     2.052     2.240
    56   1 H        0.925     0.085     1.930     2.172
    57   1 H        0.925     0.069     2.095     2.263
    58   1 H        0.924     0.073     2.051     2.240
    59   1 H        0.855     0.240     0.924     1.506
    60   1 H        0.925     0.088     1.895     2.153
    61   1 H        0.925     0.071     2.080     2.255
    62   1 H        0.924     0.077     2.006     2.215
    63   1 H        0.926     0.108     1.712     2.046
    64  15 P        3.736     0.757   130.754    20.541
    65   8 O        1.614    -0.399    20.854     6.163
    66   8 O        0.808    -0.600    26.141     6.854
    67   8 O        1.657    -0.338    19.695     5.991
    68   6 C        3.899     0.059    19.545     6.284
    69   6 C        3.804     0.095    19.012     6.207
    70   8 O        1.702    -0.331    19.552     5.970
    71   6 C        3.918     0.110    18.718     6.149
    72   8 O        1.657    -0.351    19.926     6.026
    73   6 C        3.819    -0.087    22.138     6.696
    74   6 C        3.738     0.172    17.918     6.040
    75   7 N        2.822    -0.067    22.528     7.049
    76   6 C        3.143     0.094    25.681     8.292
    77   7 N        1.871    -0.298    28.572     7.923
    78   6 C        3.195    -0.018    27.913     8.614
    79   6 C        2.773     0.262    22.576     7.782
    80   8 O        0.860    -0.502    23.831     6.545
    81   7 N        2.710    -0.195    25.223     7.459
    82   6 C        2.839     0.246    22.878     7.839
    83   7 N        2.667    -0.271    27.001     7.717
    84   7 N        1.847    -0.373    30.578     8.195
    85   6 C        3.094     0.124    25.177     8.224
    86   1 H        0.924     0.087     1.906     2.159
    87   1 H        0.925     0.089     1.888     2.149
    88   1 H        0.924     0.087     1.905     2.158
    89   1 H        0.924     0.071     2.078     2.255
    90   1 H        0.924     0.074     2.043     2.235
    91   1 H        0.925     0.072     2.060     2.244
    92   1 H        0.924     0.072     2.066     2.248
    93   1 H        0.926     0.063     2.163     2.300
    94   1 H        0.854     0.239     0.930     1.511
    95   1 H        0.860     0.256     0.860     1.452
    96   1 H        0.858     0.246     0.899     1.485
    97  15 P        3.745     0.758   130.717    20.538
    98   8 O        1.614    -0.399    20.848     6.163
    99   8 O        0.808    -0.603    26.210     6.863
   100   8 O        1.657    -0.335    19.627     5.981
   101   6 C        3.917     0.056    19.586     6.290
   102   6 C        3.810     0.093    19.044     6.212
   103   8 O        1.702    -0.329    19.512     5.964
   104   6 C        3.920     0.109    18.738     6.152
   105   8 O        1.657    -0.356    20.018     6.040
   106   6 C        3.823    -0.090    22.190     6.703
   107   6 C        3.756     0.180    17.784     6.013
   108   7 N        2.737    -0.083    22.858     7.101
   109   6 C        2.754     0.333    21.341     7.565
   110   8 O        0.862    -0.534    24.553     6.644
   111   7 N        1.868    -0.361    30.253     8.153
   112   6 C        2.882     0.202    23.715     7.984
   113   7 N        2.673    -0.232    26.070     7.583
   114   6 C        2.912    -0.095    30.395     9.040
   115   6 C        2.860     0.042    27.053     8.525
   116   1 H        0.924     0.090     1.882     2.145
   117   1 H        0.924     0.092     1.864     2.135
   118   1 H        0.924     0.094     1.844     2.124
   119   1 H        0.925     0.076     2.025     2.226
   120   1 H        0.925     0.080     1.984     2.203
   121   1 H        0.925     0.073     2.051     2.240
   122   1 H        0.924     0.059     2.214     2.327
   123   1 H        0.860     0.239     0.926     1.507
   124   1 H        0.858     0.240     0.924     1.506
   125   1 H        0.926     0.091     1.873     2.140
   126   1 H        0.926     0.090     1.882     2.145
   127  15 P        3.684     0.775   130.150    20.493
   128   7 N        2.729    -0.192    25.171     7.451
   129   6 C        2.874     0.246    22.889     7.843
   130   7 N        2.679    -0.252    26.542     7.652
   131   7 N        1.846    -0.343    29.769     8.086
   132   6 C        3.142     0.121    25.111     8.200
   133   6 C        3.207    -0.015    27.765     8.581
   134   6 C        2.780     0.264    22.545     7.777
   135   8 O        0.862    -0.537    24.615     6.652
   136   7 N        1.877    -0.325    29.274     8.020
   137   6 C        3.203     0.127    24.694     8.096
   138   7 N        2.852    -0.067    22.533     7.050
   139   6 C        3.763     0.154    18.157     6.074
   140   6 C        3.828    -0.093    22.253     6.712
   141   8 O        1.614    -0.404    20.955     6.178
   142   6 C        3.963     0.115    18.637     6.134
   143   8 O        1.658    -0.333    19.601     5.977
   144   6 C        3.820     0.078    19.262     6.246
   145   8 O        1.704    -0.302    19.021     5.888
   146   6 C        3.913     0.102    18.852     6.171
   147   8 O        1.656    -0.347    19.856     6.015
   148   8 O        0.808    -0.592    25.953     6.829
   149   1 H        0.855     0.234     0.949     1.526
   150   1 H        0.925     0.131     1.526     1.932
   151   1 H        0.925     0.107     1.720     2.051
   152   1 H        0.925     0.072     2.066     2.248
   153   1 H        0.859     0.236     0.939     1.518
   154   1 H        0.860     0.275     0.793     1.395
   155   1 H        0.925     0.043     2.410     2.427
   156   1 H        0.925     0.111     1.691     2.034
   157   1 H        0.925     0.078     1.996     2.209
   158  15 P        3.746     0.772   130.255    20.501
   159   8 O        1.614    -0.401    20.899     6.170
   160   8 O        0.808    -0.619    26.632     6.918
   161   8 O        1.657    -0.339    19.712     5.994
   162   6 C        3.870     0.051    19.670     6.307
   163   6 C        3.782     0.087    19.163     6.236
   164   8 O        1.699    -0.312    19.212     5.918
   165   6 C        3.918     0.110    18.721     6.149
   166   8 O        1.657    -0.347    19.849     6.014
   167   6 C        3.822    -0.090    22.192     6.704
   168   6 C        3.718     0.164    18.069     6.072
   169   7 N        2.736    -0.063    22.468     7.040
   170   6 C        2.700     0.322    21.529     7.594
   171   8 O        0.859    -0.475    23.248     6.465
   172   7 N        2.691    -0.182    24.941     7.417
   173   6 C        2.761     0.279    22.272     7.728
   174   8 O        0.859    -0.478    23.304     6.472
   175   6 C        2.949    -0.034    28.855     8.810
   176   6 C        3.755    -0.118    22.809     6.810
   177   6 C        2.845     0.022    27.515     8.597
   178   1 H        0.925     0.090     1.884     2.146
   179   1 H        0.924     0.089     1.886     2.147
   180   1 H        0.924     0.111     1.690     2.033
   181   1 H        0.924     0.071     2.070     2.250
   182   1 H        0.925     0.082     1.963     2.191
   183   1 H        0.925     0.075     2.034     2.230
   184   1 H        0.925     0.092     1.855     2.130
   185   1 H        0.855     0.242     0.914     1.498
   186   1 H        0.925     0.084     1.943     2.180
   187   1 H        0.925     0.058     2.220     2.330
   188   1 H        0.925     0.067     2.123     2.278
   189   1 H        0.926     0.112     1.683     2.029
   190  15 P        3.720     0.771   130.292    20.504
   191   8 O        1.614    -0.391    20.708     6.142
   192   8 O        0.808    -0.585    25.780     6.806
   193   8 O        1.657    -0.358    20.062     6.046
   194   6 C        3.894     0.052    19.649     6.301
   195   6 C        3.796     0.093    19.051     6.215
   196   8 O        1.702    -0.325    19.435     5.952
   197   6 C        3.916     0.109    18.735     6.152
   198   8 O        1.657    -0.347    19.851     6.015
   199   6 C        3.822    -0.088    22.168     6.700
   200   6 C        3.729     0.168    17.997     6.056
   201   7 N        2.818    -0.055    22.294     7.013
   202   6 C        3.152     0.096    25.613     8.277
   203   7 N        1.872    -0.304    28.732     7.946
   204   6 C        3.195    -0.015    27.848     8.604
   205   6 C        2.771     0.262    22.587     7.784
   206   8 O        0.860    -0.516    24.143     6.588
   207   7 N        2.709    -0.200    25.346     7.477
   208   6 C        2.840     0.242    22.963     7.853
   209   7 N        2.667    -0.265    26.876     7.699
   210   7 N        1.848    -0.355    30.093     8.130
   211   6 C        3.102     0.123    25.191     8.225
   212   1 H        0.924     0.093     1.851     2.128
   213   1 H        0.925     0.086     1.914     2.163
   214   1 H        0.924     0.098     1.804     2.101
   215   1 H        0.924     0.073     2.054     2.241
   216   1 H        0.924     0.077     2.009     2.216
   217   1 H        0.925     0.079     1.986     2.204
   218   1 H        0.924     0.080     1.976     2.198
   219   1 H        0.926     0.066     2.127     2.281
   220   1 H        0.853     0.230     0.964     1.539
   221   1 H        0.860     0.250     0.884     1.473
   222   1 H        0.858     0.235     0.943     1.521
   223  15 P        3.723     0.776   130.110    20.490
   224   8 O        1.614    -0.392    20.713     6.143
   225   8 O        0.808    -0.589    25.889     6.821
   226   8 O        1.657    -0.354    19.981     6.034
   227   6 C        3.897     0.050    19.676     6.306
   228   6 C        3.793     0.092    19.074     6.219
   229   8 O        1.702    -0.316    19.277     5.928
   230   6 C        3.900     0.109    18.751     6.155
   231   8 O        1.656    -0.349    19.884     6.020
   232   6 C        3.822    -0.095    22.300     6.720
   233   6 C        3.728     0.166    18.028     6.062
   234   7 N        2.737    -0.061    22.421     7.033
   235   6 C        2.700     0.322    21.528     7.594
   236   8 O        0.859    -0.492    23.613     6.515
   237   7 N        2.689    -0.196    25.251     7.463
   238   6 C        2.761     0.275    22.342     7.741
   239   8 O        0.859    -0.476    23.251     6.465
   240   6 C        2.950    -0.036    28.898     8.817
   241   6 C        3.755    -0.125    22.960     6.832
   242   6 C        2.846     0.023    27.489     8.593
   243   1 H        0.924     0.096     1.820     2.110
   244   1 H        0.924     0.085     1.928     2.171
   245   1 H        0.924     0.097     1.812     2.105
   246   1 H        0.924     0.077     2.006     2.215
   247   1 H        0.924     0.087     1.905     2.158
   248   1 H        0.925     0.083     1.943     2.180
   249   1 H        0.925     0.081     1.972     2.196
   250   1 H        0.853     0.237     0.935     1.515
   251   1 H        0.924     0.090     1.883     2.146
   252   1 H        0.925     0.061     2.182     2.310
   253   1 H        0.925     0.077     2.014     2.219
   254   1 H        0.926     0.117     1.640     2.003
   255  15 P        3.680     0.776   130.112    20.490
   256   8 O        1.614    -0.389    20.667     6.136
   257   8 O        0.808    -0.585    25.788     6.807
   258   8 O        1.656    -0.356    20.023     6.041
   259   6 C        3.867     0.052    19.669     6.307
   260   6 C        3.798     0.095    19.012     6.208
   261   8 O        1.702    -0.317    19.294     5.930
   262   6 C        3.913     0.108    18.762     6.156
   263   8 O        1.656    -0.346    19.835     6.012
   264   6 C        3.818    -0.095    22.293     6.720
   265   6 C        3.737     0.172    17.916     6.040
   266   7 N        2.738    -0.064    22.488     7.043
   267   6 C        2.700     0.326    21.463     7.583
   268   8 O        0.859    -0.510    24.012     6.570
   269   7 N        2.688    -0.193    25.189     7.454
   270   6 C        2.761     0.275    22.349     7.742
   271   8 O        0.859    -0.464    22.991     6.429
   272   6 C        2.950    -0.037    28.914     8.819
   273   6 C        3.755    -0.134    23.126     6.857
   274   6 C        2.847     0.019    27.569     8.605
   275   1 H        0.924     0.095     1.835     2.119
   276   1 H        0.924     0.088     1.895     2.153
   277   1 H        0.924     0.087     1.912     2.163
   278   1 H        0.925     0.078     1.997     2.210
   279   1 H        0.924     0.083     1.944     2.180
   280   1 H        0.925     0.080     1.979     2.200
   281   1 H        0.925     0.068     2.110     2.272
   282   1 H        0.852     0.238     0.934     1.514
   283   1 H        0.924     0.083     1.944     2.181
   284   1 H        0.924     0.094     1.845     2.124
   285   1 H        0.925     0.075     2.034     2.230
   286   1 H        0.926     0.119     1.619     1.990
   287  15 P        3.704     0.778   130.046    20.485
   288   8 O        1.614    -0.389    20.651     6.133
   289   8 O        0.808    -0.587    25.841     6.814
   290   8 O        1.656    -0.359    20.066     6.047
   291   6 C        3.876     0.054    19.634     6.300
   292   6 C        3.798     0.097    18.990     6.205
   293   8 O        1.702    -0.324    19.409     5.948
   294   6 C        3.904     0.109    18.744     6.154
   295   8 O        1.656    -0.346    19.825     6.011
   296   6 C        3.819    -0.089    22.178     6.702
   297   6 C        3.735     0.175    17.884     6.035
   298   7 N        2.738    -0.071    22.609     7.062
   299   6 C        2.700     0.326    21.454     7.581
   300   8 O        0.859    -0.513    24.079     6.579
   301   7 N        2.689    -0.184    24.995     7.425
   302   6 C        2.761     0.278    22.297     7.733
   303   8 O        0.859    -0.458    22.874     6.412
   304   6 C        2.950    -0.034    28.842     8.808
   305   6 C        3.755    -0.134    23.130     6.858
   306   6 C        2.846     0.021    27.541     8.601
   307   1 H        0.924     0.094     1.844     2.124
   308   1 H        0.924     0.088     1.895     2.153
   309   1 H        0.924     0.088     1.900     2.156
   310   1 H        0.924     0.077     2.006     2.215
   311   1 H        0.924     0.081     1.974     2.197
   312   1 H        0.925     0.073     2.056     2.242
   313   1 H        0.924     0.067     2.123     2.279
   314   1 H        0.854     0.236     0.940     1.519
   315   1 H        0.925     0.076     2.018     2.222
   316   1 H        0.924     0.077     2.005     2.215
   317   1 H        0.925     0.099     1.797     2.096
   318   1 H        0.926     0.112     1.678     2.025
   319  15 P        3.707     0.777   130.105    20.490
   320   8 O        1.614    -0.388    20.644     6.132
   321   8 O        0.808    -0.588    25.854     6.816
   322   8 O        1.657    -0.361    20.116     6.055
   323   6 C        3.886     0.054    19.621     6.297
   324   6 C        3.793     0.095    19.022     6.211
   325   8 O        1.702    -0.333    19.585     5.975
   326   6 C        3.893     0.111    18.719     6.150
   327   8 O        1.656    -0.351    19.920     6.025
   328   6 C        3.828    -0.083    22.070     6.685
   329   6 C        3.716     0.173    17.947     6.052
   330   7 N        2.813    -0.064    22.472     7.041
   331   6 C        3.145     0.095    25.643     8.285
   332   7 N        1.870    -0.299    28.609     7.928
   333   6 C        3.189    -0.013    27.850     8.609
   334   6 C        2.771     0.260    22.620     7.789
   335   8 O        0.860    -0.501    23.800     6.541
   336   7 N        2.710    -0.196    25.247     7.463
   337   6 C        2.834     0.243    22.936     7.848
   338   7 N        2.666    -0.267    26.916     7.705
   339   7 N        1.846    -0.363    30.300     8.158
   340   6 C        3.089     0.124    25.186     8.226
   341   1 H        0.924     0.090     1.879     2.144
   342   1 H        0.925     0.085     1.927     2.171
   343   1 H        0.924     0.096     1.820     2.110
   344   1 H        0.925     0.075     2.029     2.227
   345   1 H        0.924     0.077     2.014     2.219
   346   1 H        0.925     0.074     2.040     2.234
   347   1 H        0.924     0.073     2.054     2.241
   348   1 H        0.926     0.062     2.174     2.306
   349   1 H        0.853     0.238     0.933     1.514
   350   1 H        0.860     0.250     0.882     1.471
   351   1 H        0.858     0.239     0.929     1.510
   352  15 P        3.712     0.776   130.106    20.490
   353   8 O        1.614    -0.391    20.692     6.140
   354   8 O        0.808    -0.586    25.801     6.809
   355   8 O        1.657    -0.361    20.102     6.053
   356   6 C        3.906     0.057    19.561     6.287
   357   6 C        3.797     0.090    19.100     6.223
   358   8 O        1.703    -0.330    19.527     5.966
   359   6 C        3.746     0.106    18.911     6.203
   360   8 O        1.655    -0.508    23.072     6.484
   361   6 C        3.820    -0.087    22.136     6.696
   362   6 C        3.743     0.171    17.925     6.040
   363   7 N        2.739    -0.071    22.609     7.062
   364   6 C        2.702     0.325    21.478     7.585
   365   8 O        0.859    -0.505    23.905     6.555
   366   7 N        2.690    -0.194    25.221     7.459
   367   6 C        2.762     0.277    22.323     7.737
   368   8 O        0.859    -0.478    23.293     6.471
   369   6 C        2.950    -0.040    28.982     8.830
   370   6 C        3.755    -0.124    22.931     6.828
   371   6 C        2.847     0.025    27.438     8.585
   372   1 H        0.924     0.079     1.994     2.208
   373   1 H        0.925     0.078     1.997     2.210
   374   1 H        0.924     0.080     1.974     2.197
   375   1 H        0.925     0.057     2.237     2.339
   376   1 H        0.805     0.375     0.533     1.147
   377   1 H        0.924     0.071     2.073     2.251
   378   1 H        0.924     0.086     1.921     2.167
   379   1 H        0.925     0.075     2.032     2.229
   380   1 H        0.853     0.256     0.863     1.456
   381   1 H        0.925     0.064     2.153     2.295
   382   1 H        0.924     0.089     1.888     2.149
   383   1 H        0.925     0.066     2.131     2.283
   384   1 H        0.926     0.098     1.799     2.097
   385   8 O        1.655    -0.492    22.718     6.434
   386   6 C        3.675     0.060    19.793     6.375
   387   6 C        3.787     0.088    19.129     6.229
   388   8 O        1.701    -0.335    19.625     5.981
   389   6 C        3.964     0.112    18.691     6.143
   390   8 O        1.658    -0.356    20.021     6.040
   391   6 C        3.819    -0.088    22.155     6.699
   392   6 C        3.732     0.173    17.908     6.040
   393   7 N        2.835    -0.068    22.564     7.055
   394   6 C        3.164     0.099    25.486     8.251
   395   7 N        1.867    -0.283    28.189     7.870
   396   6 C        3.232     0.006    27.053     8.443
   397   6 C        2.906     0.178    24.185     8.064
   398   7 N        2.664    -0.244    26.357     7.625
   399   7 N        1.863    -0.316    29.053     7.989
   400   6 C        2.926     0.144    24.859     8.176
   401   7 N        1.827    -0.346    29.845     8.095
   402   6 C        3.137     0.133    24.893     8.166
   403   1 H        0.925     0.074     2.045     2.236
   404   1 H        0.924     0.050     2.316     2.380
   405   1 H        0.924     0.075     2.037     2.232
   406   1 H        0.924     0.060     2.198     2.318
   407   1 H        0.924     0.082     1.962     2.191
   408   1 H        0.925     0.069     2.097     2.264
   409   1 H        0.924     0.064     2.148     2.292
   410   1 H        0.926     0.079     1.992     2.207
   411   1 H        0.860     0.249     0.887     1.475
   412   1 H        0.858     0.238     0.931     1.511
   413   1 H        0.926     0.038     2.471     2.458
   414   1 H        0.805     0.361     0.563     1.178
   415  15 P        3.759     0.765   130.494    20.520
   416   8 O        1.614    -0.387    20.625     6.130
   417   8 O        0.808    -0.579    25.645     6.788
   418   8 O        1.657    -0.352    19.945     6.029
   419   6 C        3.893     0.057    19.578     6.290
   420   6 C        3.796     0.097    18.993     6.206
   421   8 O        1.701    -0.329    19.512     5.964
   422   6 C        3.927     0.111    18.703     6.146
   423   8 O        1.657    -0.350    19.899     6.022
   424   6 C        3.818    -0.086    22.127     6.695
   425   6 C        3.737     0.178    17.840     6.027
   426   7 N        2.737    -0.089    22.978     7.119
   427   6 C        2.754     0.331    21.384     7.572
   428   8 O        0.862    -0.546    24.832     6.681
   429   7 N        1.871    -0.366    30.393     8.172
   430   6 C        2.883     0.200    23.766     7.992
   431   7 N        2.675    -0.239    26.245     7.609
   432   6 C        2.911    -0.097    30.445     9.048
   433   6 C        2.861     0.045    26.987     8.515
   434   1 H        0.924     0.091     1.866     2.136
   435   1 H        0.924     0.081     1.967     2.193
   436   1 H        0.924     0.090     1.883     2.146
   437   1 H        0.924     0.070     2.083     2.257
   438   1 H        0.925     0.079     1.990     2.206
   439   1 H        0.925     0.068     2.104     2.268
   440   1 H        0.924     0.065     2.136     2.285
   441   1 H        0.860     0.251     0.880     1.470
   442   1 H        0.857     0.249     0.889     1.477
   443   1 H        0.926     0.098     1.801     2.099
   444   1 H        0.926     0.086     1.917     2.165
   445  15 P        3.735     0.776   130.139    20.492
   446   8 O        1.614    -0.389    20.663     6.135
   447   8 O        0.808    -0.587    25.829     6.813
   448   8 O        1.657    -0.358    20.055     6.045
   449   6 C        3.900     0.055    19.599     6.293
   450   6 C        3.801     0.096    18.992     6.205
   451   8 O        1.701    -0.330    19.528     5.966
[...]
   517   8 O    2.245 --   541 P    1.093   516 C    0.938
   518   6 C    3.989 --   516 C    0.994   519 C    0.982   534 H    0.968
                           535 H    0.964
   519   6 C    3.933 --   518 C    0.982   515 O    0.971   520 N    0.957
                           536 H    0.955
   520   7 N    3.591 --   521 C    1.209   529 C    1.155   519 C    0.957
                           522 N    0.114
   521   6 C    3.952 --   522 N    1.606   520 N    1.209   537 H    0.955
   522   7 N    3.002 --   521 C    1.606   523 C    1.177   520 N    0.114
   523   6 C    3.969 --   529 C    1.345   524 C    1.179   522 N    1.177
   524   6 C    3.972 --   525 N    1.361   526 N    1.296   523 C    1.179
   525   7 N    3.448 --   524 C    1.361   538 H    0.927   539 H    0.872
   526   7 N    3.085 --   527 C    1.404   524 C    1.296
   527   6 C    3.967 --   528 N    1.467   526 N    1.404   540 H    0.953
   528   7 N    3.003 --   527 C    1.467   529 C    1.253
   529   6 C    3.960 --   523 C    1.345   528 N    1.253   520 N    1.155
   530   1 H    0.992 --   513 C    0.966
   531   1 H    0.991 --   513 C    0.965
   532   1 H    0.990 --   514 C    0.948
   533   1 H    0.994 --   516 C    0.962
   534   1 H    0.993 --   518 C    0.968
   535   1 H    0.995 --   518 C    0.964
   536   1 H    0.995 --   519 C    0.955
   537   1 H    0.994 --   521 C    0.955
   538   1 H    0.946 --   525 N    0.927
   539   1 H    0.938 --   525 N    0.872
   540   1 H    0.998 --   527 C    0.953
   541  15 P    5.431 --   543 O    1.749   542 O    1.394   544 O    1.136
                           517 O    1.093
   542   8 O    2.278 --   541 P    1.394   776 H    0.720
   543   8 O    1.956 --   541 P    1.749
   544   8 O    2.258 --   541 P    1.136   545 C    0.936
   545   6 C    3.919 --   546 C    0.988   561 H    0.965   560 H    0.965
                           544 O    0.936
   546   6 C    3.941 --   545 C    0.988   548 C    0.966   547 O    0.961
                           562 H    0.949
   547   8 O    2.062 --   551 C    0.972   546 C    0.961
   548   6 C    3.931 --   550 C    0.992   546 C    0.966   563 H    0.962
                           549 O    0.942
   549   8 O    2.247 --   571 P    1.092   548 C    0.942
   550   6 C    3.989 --   548 C    0.992   551 C    0.980   564 H    0.970
                           565 H    0.968
   551   6 C    3.932 --   550 C    0.980   547 O    0.972   552 N    0.955
                           566 H    0.955
   552   7 N    3.572 --   559 C    1.206   553 C    1.076   551 C    0.955
                           554 O    0.110
   553   6 C    3.952 --   554 O    1.533   555 N    1.249   552 N    1.076
   554   8 O    1.924 --   553 C    1.533   555 N    0.121   552 N    0.110
   555   7 N    3.068 --   556 C    1.339   553 C    1.249   554 O    0.121
                           557 N    0.111
   556   6 C    3.968 --   557 N    1.394   555 N    1.339   558 C    1.146
   557   7 N    3.464 --   556 C    1.394   567 H    0.919   568 H    0.867
                           555 N    0.111
   558   6 C    3.976 --   559 C    1.654   556 C    1.146   569 H    0.960
   559   6 C    3.958 --   558 C    1.654   552 N    1.206   570 H    0.953
   560   1 H    0.992 --   545 C    0.965
   561   1 H    0.991 --   545 C    0.965
   562   1 H    0.991 --   546 C    0.949
   563   1 H    0.994 --   548 C    0.962
   564   1 H    0.994 --   550 C    0.970
   565   1 H    0.995 --   550 C    0.968
   566   1 H    0.995 --   551 C    0.955
   567   1 H    0.939 --   557 N    0.919
   568   1 H    0.938 --   557 N    0.867
   569   1 H    0.992 --   558 C    0.960
   570   1 H    0.991 --   559 C    0.953
   571  15 P    5.424 --   573 O    1.742   572 O    1.393   574 O    1.140
                           549 O    1.092
   572   8 O    2.276 --   571 P    1.393   777 H    0.720
   573   8 O    1.950 --   571 P    1.742
   574   8 O    2.261 --   571 P    1.140   575 C    0.933
   575   6 C    3.917 --   576 C    0.988   593 H    0.966   592 H    0.965
                           574 O    0.933
   576   6 C    3.941 --   575 C    0.988   578 C    0.967   577 O    0.961
                           594 H    0.949
   577   8 O    2.061 --   581 C    0.969   576 C    0.961
   578   6 C    3.931 --   580 C    0.992   576 C    0.967   595 H    0.961
                           579 O    0.941
   579   8 O    2.249 --   603 P    1.094   578 C    0.941
   580   6 C    3.988 --   578 C    0.992   581 C    0.982   596 H    0.970
                           597 H    0.964
   581   6 C    3.929 --   580 C    0.982   577 O    0.969   582 N    0.957
                           598 H    0.953
   582   7 N    3.595 --   583 C    1.216   591 C    1.151   581 C    0.957
                           584 N    0.114
   583   6 C    3.958 --   584 N    1.607   582 N    1.216   599 H    0.958
   584   7 N    3.001 --   583 C    1.607   585 C    1.176   582 N    0.114
   585   6 C    3.969 --   591 C    1.346   586 C    1.180   584 N    1.176
   586   6 C    3.971 --   587 N    1.356   588 N    1.299   585 C    1.180
   587   7 N    3.448 --   586 C    1.356   600 H    0.932   601 H    0.869
   588   7 N    3.060 --   589 C    1.405   586 C    1.299
   589   6 C    3.967 --   590 N    1.465   588 N    1.405   602 H    0.956
   590   7 N    3.002 --   589 C    1.465   591 C    1.252
   591   6 C    3.959 --   585 C    1.346   590 N    1.252   582 N    1.151
   592   1 H    0.993 --   575 C    0.965
   593   1 H    0.991 --   575 C    0.966
   594   1 H    0.990 --   576 C    0.949
   595   1 H    0.994 --   578 C    0.961
   596   1 H    0.995 --   580 C    0.970
   597   1 H    0.993 --   580 C    0.964
   598   1 H    0.993 --   581 C    0.953
   599   1 H    0.996 --   583 C    0.958
   600   1 H    0.952 --   587 N    0.932
   601   1 H    0.941 --   587 N    0.869
   602   1 H    0.996 --   589 C    0.956
   603  15 P    5.425 --   605 O    1.742   604 O    1.392   606 O    1.138
                           579 O    1.094
   604   8 O    2.278 --   603 P    1.392   778 H    0.723
   605   8 O    1.950 --   603 P    1.742
   606   8 O    2.264 --   603 P    1.138   607 C    0.937
   607   6 C    3.919 --   608 C    0.990   623 H    0.964   624 H    0.963
                           606 O    0.937
   608   6 C    3.940 --   607 C    0.990   610 C    0.967   609 O    0.960
                           625 H    0.950
   609   8 O    2.070 --   613 C    0.981   608 C    0.960
   610   6 C    3.929 --   612 C    0.988   608 C    0.967   626 H    0.963
                           611 O    0.944
   611   8 O    2.257 --   635 P    1.102   610 C    0.944
   612   6 C    3.985 --   610 C    0.988   613 C    0.975   627 H    0.972
                           628 H    0.969
   613   6 C    3.927 --   609 O    0.981   612 C    0.975   629 H    0.954
                           614 N    0.948
   614   7 N    3.576 --   622 C    1.153   615 C    1.144   613 C    0.948
                           616 O    0.127
   615   6 C    3.959 --   616 O    1.544   617 N    1.173   614 N    1.144
   616   8 O    1.956 --   615 C    1.544   617 N    0.127   614 N    0.127
   617   7 N    3.530 --   615 C    1.173   618 C    1.118   630 H    0.900
                           619 O    0.134   616 O    0.127
   618   6 C    3.936 --   619 O    1.653   617 N    1.118   620 C    1.076
   619   8 O    1.974 --   618 C    1.653   617 N    0.134
   620   6 C    3.980 --   622 C    1.659   618 C    1.076   621 C    1.023
   621   6 C    3.981 --   620 C    1.023   631 H    0.981   633 H    0.967
                           632 H    0.963
   622   6 C    3.949 --   620 C    1.659   614 N    1.153   634 H    0.948
   623   1 H    0.992 --   607 C    0.964
   624   1 H    0.990 --   607 C    0.963
   625   1 H    0.992 --   608 C    0.950
   626   1 H    0.995 --   610 C    0.963
   627   1 H    0.994 --   612 C    0.972
   628   1 H    0.994 --   612 C    0.969
   629   1 H    0.993 --   613 C    0.954
   630   1 H    0.945 --   617 N    0.900
   631   1 H    0.993 --   621 C    0.981
   632   1 H    0.990 --   621 C    0.963
   633   1 H    0.993 --   621 C    0.967
   634   1 H    0.987 --   622 C    0.948
   635  15 P    5.421 --   637 O    1.739   636 O    1.387   638 O    1.132
                           611 O    1.102
   636   8 O    2.276 --   635 P    1.387   779 H    0.725
   637   8 O    1.945 --   635 P    1.739
   638   8 O    2.255 --   635 P    1.132   639 C    0.932
   639   6 C    3.916 --   640 C    0.984   658 H    0.967   657 H    0.964
                           638 O    0.932
   640   6 C    3.945 --   639 C    0.984   642 C    0.971   641 O    0.967
                           659 H    0.947
   641   8 O    2.078 --   645 C    0.975   640 C    0.967
   642   6 C    3.930 --   644 C    0.994   640 C    0.971   660 H    0.960
                           643 O    0.936
   643   8 O    2.251 --   668 P    1.100   642 C    0.936
   644   6 C    3.988 --   642 C    0.994   645 C    0.984   661 H    0.966
                           662 H    0.964
   645   6 C    3.932 --   644 C    0.984   641 O    0.975   663 H    0.953
                           646 N    0.952
   646   7 N    3.595 --   647 C    1.199   656 C    1.171   645 C    0.952
                           648 N    0.109
   647   6 C    3.945 --   648 N    1.609   646 N    1.199   664 H    0.954
   648   7 N    3.007 --   647 C    1.609   649 C    1.187   646 N    0.109
   649   6 C    3.960 --   656 C    1.351   648 N    1.187   650 C    1.130
   650   6 C    3.945 --   651 O    1.553   652 N    1.145   649 C    1.130
   651   8 O    1.948 --   650 C    1.553   652 N    0.133
   652   7 N    3.519 --   653 C    1.179   650 C    1.145   665 H    0.831
                           651 O    0.133
   653   6 C    3.965 --   655 N    1.355   654 N    1.341   652 N    1.179
   654   7 N    3.402 --   653 C    1.341   666 H    0.918   667 H    0.866
                           655 N    0.107
   655   7 N    2.955 --   653 C    1.355   656 C    1.233   654 N    0.107
   656   6 C    3.962 --   649 C    1.351   655 N    1.233   646 N    1.171
   657   1 H    0.992 --   639 C    0.964
   658   1 H    0.993 --   639 C    0.967
   659   1 H    0.987 --   640 C    0.947
   660   1 H    0.995 --   642 C    0.960
   661   1 H    0.993 --   644 C    0.966
   662   1 H    0.994 --   644 C    0.964
   663   1 H    0.992 --   645 C    0.953
   664   1 H    0.993 --   647 C    0.954
   665   1 H    0.946 --   652 N    0.831
   666   1 H    0.939 --   654 N    0.918
   667   1 H    0.943 --   654 N    0.866
   668  15 P    5.428 --   670 O    1.778   669 O    1.386   671 O    1.103
                           643 O    1.100
   669   8 O    2.286 --   668 P    1.386   780 H    0.740
   670   8 O    1.974 --   668 P    1.778
   671   8 O    2.237 --   668 P    1.103   672 C    0.936
   672   6 C    3.920 --   673 C    0.988   687 H    0.961   688 H    0.960
                           671 O    0.936
   673   6 C    3.943 --   672 C    0.988   675 C    0.967   674 O    0.964
                           689 H    0.948
   674   8 O    2.066 --   678 C    0.972   673 C    0.964
   675   6 C    3.927 --   677 C    0.992   673 C    0.967   690 H    0.961
                           676 O    0.936
   676   8 O    2.255 --   698 P    1.107   675 C    0.936
   677   6 C    3.989 --   675 C    0.992   678 C    0.980   691 H    0.969
                           692 H    0.968
   678   6 C    3.933 --   677 C    0.980   674 O    0.972   679 N    0.956
                           693 H    0.954
   679   7 N    3.576 --   686 C    1.205   680 C    1.080   678 C    0.956
                           681 O    0.111
   680   6 C    3.953 --   681 O    1.529   682 N    1.248   679 N    1.080
   681   8 O    1.921 --   680 C    1.529   682 N    0.120   679 N    0.111
   682   7 N    3.072 --   683 C    1.341   680 C    1.248   681 O    0.120
                           684 N    0.110
   683   6 C    3.967 --   684 N    1.390   682 N    1.341   685 C    1.147
   684   7 N    3.463 --   683 C    1.390   694 H    0.921   695 H    0.863
                           682 N    0.110
   685   6 C    3.977 --   686 C    1.655   683 C    1.147   696 H    0.960
   686   6 C    3.958 --   685 C    1.655   679 N    1.205   697 H    0.951
   687   1 H    0.990 --   672 C    0.961
   688   1 H    0.992 --   672 C    0.960
   689   1 H    0.990 --   673 C    0.948
   690   1 H    0.994 --   675 C    0.961
   691   1 H    0.993 --   677 C    0.969
   692   1 H    0.995 --   677 C    0.968
   693   1 H    0.994 --   678 C    0.954
   694   1 H    0.943 --   684 N    0.921
   695   1 H    0.939 --   684 N    0.863
   696   1 H    0.992 --   685 C    0.960
   697   1 H    0.990 --   686 C    0.951
   698  15 P    5.426 --   700 O    1.773   699 O    1.380   676 O    1.107
                           701 O    1.103
   699   8 O    2.283 --   698 P    1.380   781 H    0.740
   700   8 O    1.972 --   698 P    1.773
   701   8 O    2.238 --   698 P    1.103   702 C    0.939
   702   6 C    3.922 --   703 C    0.989   719 H    0.963   720 H    0.958
                           701 O    0.939
   703   6 C    3.943 --   702 C    0.989   705 C    0.965   704 O    0.964
                           721 H    0.949
   704   8 O    2.068 --   708 C    0.974   703 C    0.964
   705   6 C    3.927 --   707 C    0.991   703 C    0.965   722 H    0.962
                           706 O    0.936
   706   8 O    2.249 --   730 P    1.101   705 C    0.936
   707   6 C    3.988 --   705 C    0.991   708 C    0.978   723 H    0.972
                           724 H    0.964
   708   6 C    3.933 --   707 C    0.978   704 O    0.974   709 N    0.960
                           725 H    0.954
   709   7 N    3.593 --   710 C    1.212   718 C    1.153   708 C    0.960
                           711 N    0.113
   710   6 C    3.954 --   711 N    1.605   709 N    1.212   726 H    0.957
   711   7 N    3.001 --   710 C    1.605   712 C    1.177   709 N    0.113
   712   6 C    3.969 --   718 C    1.348   711 N    1.177   713 C    1.175
   713   6 C    3.971 --   714 N    1.370   715 N    1.290   712 C    1.175
   714   7 N    3.461 --   713 C    1.370   727 H    0.926   728 H    0.872
   715   7 N    3.079 --   716 C    1.410   713 C    1.290
   716   6 C    3.971 --   717 N    1.463   715 N    1.410   729 H    0.958
   717   7 N    2.998 --   716 C    1.463   718 C    1.248
   718   6 C    3.959 --   712 C    1.348   717 N    1.248   709 N    1.153
   719   1 H    0.991 --   702 C    0.963
   720   1 H    0.993 --   702 C    0.958
   721   1 H    0.991 --   703 C    0.949
   722   1 H    0.995 --   705 C    0.962
   723   1 H    0.994 --   707 C    0.972
   724   1 H    0.994 --   707 C    0.964
   725   1 H    0.995 --   708 C    0.954
   726   1 H    0.995 --   710 C    0.957
   727   1 H    0.947 --   714 N    0.926
   728   1 H    0.940 --   714 N    0.872
   729   1 H    0.998 --   716 C    0.958
   730  15 P    5.420 --   732 O    1.770   731 O    1.380   733 O    1.106
                           706 O    1.101
   731   8 O    2.279 --   730 P    1.380   782 H    0.738
   732   8 O    1.971 --   730 P    1.770
   733   8 O    2.240 --   730 P    1.106   734 C    0.937
   734   6 C    3.923 --   735 C    0.988   749 H    0.963   750 H    0.959
                           733 O    0.937
   735   6 C    3.938 --   734 C    0.988   737 C    0.961   736 O    0.960
                           751 H    0.953
   736   8 O    2.064 --   740 C    0.976   735 C    0.960
   737   6 C    3.961 --   738 O    0.999   739 C    0.992   752 H    0.962
                           735 C    0.961
   738   8 O    1.916 --   737 C    0.999   753 H    0.850
   739   6 C    3.986 --   737 C    0.992   754 H    0.976   740 C    0.973
                           755 H    0.972
   740   6 C    3.928 --   736 O    0.976   739 C    0.973   756 H    0.956
                           741 N    0.951
   741   7 N    3.577 --   748 C    1.209   742 C    1.081   740 C    0.951
                           743 O    0.109
   742   6 C    3.953 --   743 O    1.519   744 N    1.256   741 N    1.081
   743   8 O    1.905 --   742 C    1.519   744 N    0.121   741 N    0.109
   744   7 N    3.072 --   745 C    1.335   742 C    1.256   743 O    0.121
                           746 N    0.110
   745   6 C    3.968 --   746 N    1.398   744 N    1.335   747 C    1.147
   746   7 N    3.468 --   745 C    1.398   757 H    0.920   758 H    0.870
                           744 N    0.110
   747   6 C    3.976 --   748 C    1.650   745 C    1.147   759 H    0.961
   748   6 C    3.959 --   747 C    1.650   741 N    1.209   760 H    0.954
   749   1 H    0.993 --   734 C    0.963
   750   1 H    0.993 --   734 C    0.959
   751   1 H    0.994 --   735 C    0.953
   752   1 H    0.998 --   737 C    0.962
   753   1 H    0.863 --   738 O    0.850
   754   1 H    0.996 --   739 C    0.976
   755   1 H    0.992 --   739 C    0.972
   756   1 H    0.995 --   740 C    0.956
   757   1 H    0.940 --   746 N    0.920
   758   1 H    0.935 --   746 N    0.870
   759   1 H    0.993 --   747 C    0.961
   760   1 H    0.991 --   748 C    0.954
   761   1 H    0.758 --    33 O    0.724
   762   1 H    0.756 --    65 O    0.722
   763   1 H    0.757 --    98 O    0.723
   764   1 H    0.751 --   141 O    0.716
   765   1 H    0.762 --   159 O    0.728
   766   1 H    0.781 --   191 O    0.739
   767   1 H    0.784 --   224 O    0.739
   768   1 H    0.783 --   256 O    0.742
   769   1 H    0.784 --   288 O    0.741
   770   1 H    0.784 --   320 O    0.738
   771   1 H    0.784 --   353 O    0.738
   772   1 H    0.784 --   416 O    0.740
   773   1 H    0.784 --   446 O    0.739
   774   1 H    0.759 --   478 O    0.723
   775   1 H    0.756 --   510 O    0.722
   776   1 H    0.755 --   542 O    0.720
   777   1 H    0.755 --   572 O    0.720
   778   1 H    0.757 --   604 O    0.723
   779   1 H    0.759 --   636 O    0.725
   780   1 H    0.783 --   669 O    0.740
   781   1 H    0.786 --   699 O    0.740
   782   1 H    0.783 --   731 O    0.738
 ---------------------------------------------------------------------------

Topologies differ in total number of bonds
Writing topology from bond orders to xtbtopo.mol

molecular dipole:
                 x           y           z       tot (Debye)
 q only:       -0.751       0.324      -1.252
   full:        1.996       1.610      -1.242       7.242
molecular quadrupole (traceless):
                xx          xy          yy          xz          yz          zz
 q only:      860.343    -128.851     705.294     482.504      22.880   -1565.637
  q+dip:      908.311    -165.405     782.467     718.261      73.667   -1690.778
   full:      887.827    -164.451     770.132     717.280      58.368   -1657.959


           -------------------------------------------------
          | TOTAL ENERGY            -1548.536310204612 Eh   |
          | GRADIENT NORM               0.682094548932 Eh/α |
          | HOMO-LUMO GAP               2.403451198515 eV   |
           -------------------------------------------------
########################################################################
[WARNING] Runtime exception occurred
-2- restart_readRestart: Dimension missmatch in restart file.
-1- restart_readRestart: Number of electron missmatch in restart file.
########################################################################

------------------------------------------------------------------------
 * finished run on 2023/03/09 at 13:52:21.450     
------------------------------------------------------------------------
 total:
 * wall-time:     0 d,  0 h,  0 min, 14.975 sec
 *  cpu-time:     0 d,  0 h,  2 min, 17.718 sec
 * ratio c/w:     9.197 speedup
 SCF:
 * wall-time:     0 d,  0 h,  0 min, 13.874 sec
 *  cpu-time:     0 d,  0 h,  2 min, 10.861 sec
 * ratio c/w:     9.432 speedup

