      -----------------------------------------------------------      
     |                   =====================                   |     
     |                           x T B                           |     
     |                   =====================                   |     
     |                         S. Grimme                         |     
     |          Mulliken Center for Theoretical Chemistry        |     
     |                    University of Bonn                     |     
      -----------------------------------------------------------      

   * xtb version 6.5.1 (579679a) compiled by 'ehlert@majestix' on 2022-07-11

   xtb is free software: you can redistribute it and/or modify it under
   the terms of the GNU Lesser General Public License as published by
   the Free Software Foundation, either version 3 of the License, or
   (at your option) any later version.
   
   xtb is distributed in the hope that it will be useful,
   but WITHOUT ANY WARRANTY; without even the implied warranty of
   MERCHANTABILITY or FITNESS FOR A PARTICULAR PURPOSE.  See the
   GNU Lesser General Public License for more details.
   
   Cite this work as:
   * C. Bannwarth, E. Caldeweyher, S. Ehlert, A. Hansen, P. Pracht,
     J. Seibert, S. Spicher, S. Grimme, WIREs Comput. Mol. Sci., 2020, 11,
     e01493. DOI: 10.1002/wcms.1493
   
   for GFN2-xTB:
   * C. Bannwarth, S. Ehlert and S. Grimme., J. Chem. Theory Comput., 2019,
     15, 1652-1671. DOI: 10.1021/acs.jctc.8b01176
   for GFN1-xTB:
   * S. Grimme, C. Bannwarth, P. Shushkov, J. Chem. Theory Comput., 2017,
     13, 1989-2009. DOI: 10.1021/acs.jctc.7b00118
   for GFN0-xTB:
   * P. Pracht, E. Caldeweyher, S. Ehlert, S. Grimme, ChemRxiv, 2019, preprint.
     DOI: 10.26434/chemrxiv.8326202.v1
   for GFN-FF:
   * S. Spicher and S. Grimme, Angew. Chem. Int. Ed., 2020, 59, 15665-15673.
     DOI: 10.1002/anie.202004239
   
   for ALPB and GBSA implicit solvation:
   * S. Ehlert, M. Stahn, S. Spicher, S. Grimme, J. Chem. Theory Comput.,
     2021, 17, 4250-4261. DOI: 10.1021/acs.jctc.1c00471
   
   for DFT-D4:
   * E. Caldeweyher, C. Bannwarth and S. Grimme, J. Chem. Phys., 2017,
     147, 034112. DOI: 10.1063/1.4993215
   * E. Caldeweyher, S. Ehlert, A. Hansen, H. Neugebauer, S. Spicher,
     C. Bannwarth and S. Grimme, J. Chem. Phys., 2019, 150, 154122.
     DOI: 10.1063/1.5090222
   * E. Caldeweyher, J.-M. Mewes, S. Ehlert and S. Grimme, Phys. Chem. Chem. Phys.
     2020, 22, 8499-8512. DOI: 10.1039/D0CP00502A
   
   for sTDA-xTB:
   * S. Grimme and C. Bannwarth, J. Chem. Phys., 2016, 145, 054103.
     DOI: 10.1063/1.4959605
   
   in the mass-spec context:
   * V. Asgeirsson, C. Bauer and S. Grimme, Chem. Sci., 2017, 8, 4879.
     DOI: 10.1039/c7sc00601b
   * J. Koopman and S. Grimme, ACS Omega 2019, 4, 12, 15120-15133.
     DOI: 10.1021/acsomega.9b02011
   
   for metadynamics refer to:
   * S. Grimme, J. Chem. Theory Comput., 2019, 155, 2847-2862
     DOI: 10.1021/acs.jctc.9b00143
   
   for SPH calculations refer to:
   * S. Spicher and S. Grimme, J. Chem. Theory Comput., 2021, 17, 1701-1714
     DOI: 10.1021/acs.jctc.0c01306
   
   with help from (in alphabetical order)
   P. Atkinson, C. Bannwarth, F. Bohle, G. Brandenburg, E. Caldeweyher
   M. Checinski, S. Dohm, S. Ehlert, S. Ehrlich, I. Gerasimov, C. Hölzer
   A. Katbashev, J. Koopman, C. Lavigne, S. Lehtola, F. März, M. Müller,
   F. Musil, H. Neugebauer, J. Pisarek, C. Plett, P. Pracht, F. Pultar,
   J. Seibert, P. Shushkov, S. Spicher, M. Stahn, M. Steiner, T. Strunk,
   J. Stückrath, T. Rose, and J. Unsleber
   
 * started run on 2023/03/09 at 13:52:09.463     

           -------------------------------------------------
          |                Calculation Setup                |
           -------------------------------------------------

          program call               : /N/u/schandy/BigRed3/bin/xtb-6.5.1/bin/xtb 2lib.xyz --alpb water
          hostname                   : nid00064
          coordinate file            : 2lib.xyz
          omp threads                :                    10

   ID    Z sym.   atoms
    1    8 O      1, 4, 6, 14, 33-35, 38, 40, 45, 48, 65-67, 70, 72, 77,
                  95-97, 100, 102, 107, 135-137, 140, 142, 157-159, 162, 164,
                  172, 190-192, 195, 197, 205, 223-225, 228, 230, 255-257,
                  260, 262, 267, 285-287, 290, 292, 300, 318, 321, 323, 328,
                  347-349, 352, 354, 362, 380-382, 385, 387, 392, 395,
                  412-414, 417, 419, 424, 442-444, 447, 449, 454, 472-474,
                  477, 479, 484, 487, 504-506, 509, 511, 519, 537-539, 542,
                  544, 552, 570-572, 575, 577, 602-604, 607, 609, 614
    2    6 C      2, 3, 5, 7, 8, 10, 12, 13, 16, 19, 36, 37, 39, 41, 42, 44,
                  47, 49-51, 68, 69, 71, 73, 74, 76, 79, 81, 82, 98, 99, 101,
                  103, 104, 106, 109, 111, 112, 124, 126, 127, 130, 132, 138,
                  139, 141, 143, 144, 160, 161, 163, 165, 166, 168, 170, 171,
                  174, 177, 193, 194, 196, 198, 199, 201, 203, 204, 207, 210,
                  226, 227, 229, 231, 232, 234, 236, 237, 240, 242, 258, 259,
                  261, 263, 264, 266, 269, 271, 272, 288, 289, 291, 293, 294,
                  296, 298, 299, 302, 305, 319, 320, 322, 324, 325, 327, 330,
                  332, 333, 350, 351, 353, 355, 356, 358, 360, 361, 364, 367,
                  383, 384, 386, 388, 389, 391, 394, 396-398, 415, 416, 418,
                  420, 421, 423, 426, 428, 429, 445, 446, 448, 450, 451, 453,
                  456, 458, 459, 475, 476, 478, 480, 481, 483, 486, 488-490,
                  507, 508, 510, 512, 513, 515, 517, 518, 521, 524, 540, 541,
                  543, 545, 546, 548, 550, 551, 554, 557, 573, 574, 576, 578,
                  579, 581, 583, 584, 587, 589, 605, 606, 608, 610, 611, 613,
                  616, 618, 619
    3    7 N      9, 11, 15, 17, 18, 43, 46, 75, 78, 80, 105, 108, 110, 125,
                  128, 129, 131, 133, 167, 169, 173, 175, 176, 200, 202, 206,
                  208, 209, 233, 235, 238, 239, 241, 265, 268, 270, 295, 297,
                  301, 303, 304, 326, 329, 331, 357, 359, 363, 365, 366, 390,
                  393, 422, 425, 427, 452, 455, 457, 482, 485, 514, 516, 520,
                  522, 523, 547, 549, 553, 555, 556, 580, 582, 585, 586, 588,
                  612, 615, 617
    4    1 H      20-31, 52-63, 83-93, 113-123, 145-155, 178-188, 211-221,
                  243-253, 273-283, 306-317, 334-345, 368-378, 399-410,
                  430-440, 460-470, 491-502, 525-535, 558-568, 590-600,
                  620-649
    5   15 P      32, 64, 94, 134, 156, 189, 222, 254, 284, 346, 379, 411,
                  441, 471, 503, 536, 569, 601

molecular fragmentation (1/2 indicates fragments):
111111111111111111111111111111111111111111111111111111111111111111111111
111111111111111111111111111111111111111111111111111111111111111111111111
111111111111111111111111111111111111111111111111111111111111111111111111
111111111111111111111111111111111111111111111111111111111111111111111111
111111111111111111111111111112222222222222222222222222222222222222222222
222222222222222222222222222222222222222222222222222222222222222222222222
222222222222222222222222222222222222222222222222222222222222222222222222
222222222222222222222222222222222222222222222222222222222222222222222222
222222222222222222222222222222222222222222222222222222222222222211111111
1
# atoms in fragment 1/2:   326   323
 fragment masses (1/2) :     3053.01     3003.98
CMA distance (Bohr)    :   2.783
constraining FC (au)   :  0.0500

           -------------------------------------------------
          |                 G F N 2 - x T B                 |
           -------------------------------------------------

        Reference                      10.1021/acs.jctc.8b01176
      * Hamiltonian:
        H0-scaling (s, p, d)           1.850000    2.230000    2.230000
        zeta-weighting                 0.500000
      * Dispersion:
        s8                             2.700000
        a1                             0.520000
        a2                             5.000000
        s9                             5.000000
      * Repulsion:
        kExp                           1.500000    1.000000
        rExp                           1.000000
      * Coulomb:
        alpha                          2.000000
        third order                    shell-resolved
        anisotropic                    true
        a3                             3.000000
        a5                             4.000000
        cn-shift                       1.200000
        cn-exp                         4.000000
        max-rad                        5.000000

      * Solvation model:               ALPB
        Solvent                        water
        Parameter file                 internal GFN2-xTB/ALPB
        Dielectric constant                8.0200E+01
        Reference state                gsolv [1 M gas/solution]
        Free energy shift                  1.0808E-03 Eh       6.7819E-01 kcal/mol
        Temperature                        2.9815E+02 K
        Density                            1.0000E+00 kg/L
        Solvent mass                       1.8000E+01 g/mol
        Interaction kernel             P16
        Born radius scaling (c1)           1.4744E+00
        Born radii integrator          GBOBC
        Born offset                        0.0000E+00 a0       0.0000E+00 AA
        H-bond correction              true
        Ion screening                  false
        Surface tension                    1.0000E-05 Eh       1.5569E+01 dyn/cm
        Grid points                               230 per atom

          ...................................................
          :                      SETUP                      :
          :.................................................:
          :  # basis functions                1969          :
          :  # atomic orbitals                1951          :
          :  # shells                         1071          :
          :  # electrons                      2188          :
          :  max. iterations                   250          :
          :  Hamiltonian                  GFN2-xTB          :
          :  restarted?                      false          :
          :  GBSA solvation                   true          :
          :  PC potential                    false          :
          :  electronic temp.          300.0000000     K    :
          :  accuracy                    1.0000000          :
          :  -> integral cutoff          0.2500000E+02      :
          :  -> integral neglect         0.1000000E-07      :
          :  -> SCF convergence          0.1000000E-05 Eh   :
          :  -> wf. convergence          0.1000000E-03 e    :
          :  Broyden damping             0.4000000          :
          ...................................................

 iter      E             dE          RMSdq      gap      omega  full diag
   1  -1294.1739980 -0.129417E+04  0.589E+00    2.65       0.0  T
   2  -1297.0470298 -0.287303E+01  0.338E+00    2.24       1.0  T
   3  -1297.2183764 -0.171347E+00  0.143E+00    2.84       1.0  T
   4  -1297.4978362 -0.279460E+00  0.620E-01    2.43       1.0  T
   5  -1297.5833024 -0.854662E-01  0.295E-01    2.54       1.0  T
   6  -1297.5950194 -0.117170E-01  0.130E-01    2.54       1.0  T
   7  -1297.5980096 -0.299016E-02  0.652E-02    2.55       1.0  T
   8  -1297.5983431 -0.333528E-03  0.374E-02    2.55       1.0  T
   9  -1297.5985576 -0.214531E-03  0.159E-02    2.55       1.0  T
  10  -1297.5986079 -0.502404E-04  0.593E-03    2.55       1.0  T
  11  -1297.5986110 -0.313418E-05  0.319E-03    2.55       1.2  T
  12  -1297.5986130 -0.197690E-05  0.125E-03    2.55       3.1  T
  13  -1297.5986132 -0.200780E-06  0.641E-04    2.55       6.1  T
  14  -1297.5986132 -0.527807E-07  0.342E-04    2.55      11.5  T

   *** convergence criteria satisfied after 14 iterations ***

         #    Occupation            Energy/Eh            Energy/eV
      -------------------------------------------------------------
         1        2.0000           -0.7701466             -20.9568
       ...           ...                  ...                  ...
      1088        2.0000           -0.3741575             -10.1813
      1089        2.0000           -0.3738600             -10.1732
      1090        2.0000           -0.3724120             -10.1338
      1091        2.0000           -0.3716560             -10.1133
      1092        2.0000           -0.3711829             -10.1004
      1093        2.0000           -0.3699322             -10.0664
      1094        2.0000           -0.3693561             -10.0507 (HOMO)
      1095                         -0.2756610              -7.5011 (LUMO)
      1096                         -0.2753597              -7.4929
      1097                         -0.2729718              -7.4279
      1098                         -0.2713715              -7.3844
      1099                         -0.2712942              -7.3823
       ...                                ...                  ...
      1951                          1.3633855              37.0996
      -------------------------------------------------------------
                  HL-Gap            0.0936951 Eh            2.5496 eV
             Fermi-level           -0.3225085 Eh           -8.7759 eV

 SCC (total)                   0 d,  0 h,  0 min,  8.921 sec
 SCC setup                      ...        0 min,  0.058 sec (  0.651%)
 Dispersion                     ...        0 min,  0.200 sec (  2.246%)
 classical contributions        ...        0 min,  0.003 sec (  0.034%)
 integral evaluation            ...        0 min,  0.447 sec (  5.009%)
 iterations                     ...        0 min,  6.573 sec ( 73.681%)
 molecular gradient             ...        0 min,  1.577 sec ( 17.680%)
 printout                       ...        0 min,  0.062 sec (  0.698%)

         :::::::::::::::::::::::::::::::::::::::::::::::::::::
         ::                     SUMMARY                     ::
         :::::::::::::::::::::::::::::::::::::::::::::::::::::
         :: total energy           -1285.205258168839 Eh    ::
         :: total w/o Gsasa/hb     -1284.975437471563 Eh    ::
         :: gradient norm              0.642286082269 Eh/a0 ::
         :: HOMO-LUMO gap              2.549573579784 eV    ::
         ::.................................................::
         :: SCC energy             -1297.598613227707 Eh    ::
         :: -> isotropic ES            4.619235315396 Eh    ::
         :: -> anisotropic ES         -0.296523691103 Eh    ::
         :: -> anisotropic XC          0.236420038872 Eh    ::
         :: -> dispersion             -1.111673932456 Eh    ::
         :: -> Gsolv                  -0.933565674272 Eh    ::
         ::    -> Gelec               -0.703744976997 Eh    ::
         ::    -> Gsasa                0.051192098037 Eh    ::
         ::    -> Ghb                 -0.282093555011 Eh    ::
         ::    -> Gshift               0.001080759698 Eh    ::
         :: repulsion energy          12.299798941798 Eh    ::
         :: add. restraining           0.000000000000 Eh    ::
         :: total charge              -0.000000000000 e     ::
         :::::::::::::::::::::::::::::::::::::::::::::::::::::

           -------------------------------------------------
          |                Property Printout                |
           -------------------------------------------------

    * Orbital Energies and Occupations

         #    Occupation            Energy/Eh            Energy/eV
      -------------------------------------------------------------
         1        2.0000           -0.7701466             -20.9568
       ...           ...                  ...                  ...
      1082        2.0000           -0.3838393             -10.4448
      1083        2.0000           -0.3836732             -10.4403
      1084        2.0000           -0.3831280             -10.4254
      1085        2.0000           -0.3822015             -10.4002
      1086        2.0000           -0.3816584             -10.3855
      1087        2.0000           -0.3787703             -10.3069
      1088        2.0000           -0.3741575             -10.1813
      1089        2.0000           -0.3738600             -10.1732
      1090        2.0000           -0.3724120             -10.1338
      1091        2.0000           -0.3716560             -10.1133
      1092        2.0000           -0.3711829             -10.1004
      1093        2.0000           -0.3699322             -10.0664
      1094        2.0000           -0.3693561             -10.0507 (HOMO)
      1095                         -0.2756610              -7.5011 (LUMO)
      1096                         -0.2753597              -7.4929
      1097                         -0.2729718              -7.4279
      1098                         -0.2713715              -7.3844
      1099                         -0.2712942              -7.3823
      1100                         -0.2691133              -7.3229
      1101                         -0.2687384              -7.3127
      1102                         -0.2683303              -7.3016
      1103                         -0.2642934              -7.1918
      1104                         -0.2621282              -7.1329
      1105                         -0.2610829              -7.1044
       ...                                ...                  ...
      1951                          1.3633855              37.0996
      -------------------------------------------------------------
                  HL-Gap            0.0936951 Eh            2.5496 eV
             Fermi-level           -0.3225085 Eh           -8.7759 eV

 * generalized Born model for continuum solvation

     #   Z     Born rad/Å   SASA/Å²    H-bond
     1   8 O        2.006    16.984    -0.002
     2   6 C        2.312     1.487    -0.000
     3   6 C        2.511     0.086    -0.000
     4   8 O        2.338     7.251    -0.001
     5   6 C        2.591     0.004    -0.000
     6   8 O        2.341     3.671    -0.000
     7   6 C        2.577     0.251    -0.000
     8   6 C        2.665     0.729    -0.000
     9   7 N        2.709     1.087    -0.000
    10   6 C        2.585     6.555    -0.001
    11   7 N        2.386    16.667    -0.001
    12   6 C        2.900     3.302    -0.000
    13   6 C        2.645     4.131    -0.000
    14   8 O        2.158    12.371    -0.001
    15   7 N        2.551     1.900    -0.000
    16   6 C        2.714     4.043    -0.000
    17   7 N        2.243     5.226    -0.000
    18   7 N        2.533     5.420    -0.000
    19   6 C        3.028     3.348    -0.000
    20   1 H        1.817    20.381    -0.034
    21   1 H        1.829    19.879    -0.033
    22   1 H        1.931    14.728    -0.025
    23   1 H        1.962     7.964    -0.013
    24   1 H        1.992     4.934    -0.008
    25   1 H        2.018     0.035    -0.000
    26   1 H        1.998    11.133    -0.019
    27   1 H        1.911    15.763    -0.026
    28   1 H        2.213     0.496    -0.001
    29   1 H        1.927     4.034    -0.007
    30   1 H        1.883    17.907    -0.030
    31   1 H        1.731    16.607    -0.028
    32  15 P        2.756     6.805    -0.001
    33   8 O        2.069    12.405    -0.001
    34   8 O        2.072    26.962    -0.003
    35   8 O        2.301     1.759    -0.000
    36   6 C        2.444     0.363    -0.000
    37   6 C        2.562     0.099    -0.000
    38   8 O        2.419     1.006    -0.000
    39   6 C        2.624     0.072    -0.000
    40   8 O        2.340     3.955    -0.000
    41   6 C        2.625     0.002    -0.000
    42   6 C        2.732     0.000    -0.000
    43   7 N        2.741     0.000     0.000
    44   6 C        2.740     0.000    -0.000
    45   8 O        2.202     6.909    -0.001
    46   7 N        2.551     0.000     0.000
    47   6 C        2.728     0.000     0.000
    48   8 O        2.212     6.467    -0.001
    49   6 C        2.773     0.005    -0.000
    50   6 C        2.425     2.404    -0.000
    51   6 C        2.785     0.039    -0.000
    52   1 H        1.901    11.277    -0.019
    53   1 H        1.883    13.843    -0.023
    54   1 H        1.952    14.932    -0.025
    55   1 H        2.001     6.771    -0.011
    56   1 H        2.033     4.308    -0.007
    57   1 H        2.063     0.000    -0.000
    58   1 H        2.016     7.111    -0.012
    59   1 H        2.249     0.000     0.000
    60   1 H        1.881    12.988    -0.022
    61   1 H        1.883    13.703    -0.023
    62   1 H        1.902    10.104    -0.017
    63   1 H        2.043     3.393    -0.006
    64  15 P        2.768     6.432    -0.001
    65   8 O        2.068    11.903    -0.001
    66   8 O        2.089    24.102    -0.003
    67   8 O        2.301     1.868    -0.000
    68   6 C        2.439     0.345    -0.000
    69   6 C        2.554     0.104    -0.000
    70   8 O        2.406     4.834    -0.001
    71   6 C        2.607     0.114    -0.000
    72   8 O        2.341     3.439    -0.000
    73   6 C        2.611     0.085    -0.000
    74   6 C        2.715     0.332    -0.000
    75   7 N        2.705     0.007    -0.000
    76   6 C        2.746     0.130    -0.000
    77   8 O        2.234     5.305    -0.001
    78   7 N        2.603     0.000     0.000
    79   6 C        2.785     0.047    -0.000
    80   7 N        2.302     1.262    -0.000
    81   6 C        2.687     2.275    -0.000
    82   6 C        2.712     1.137    -0.000
    83   1 H        1.897    12.893    -0.022
    84   1 H        1.876    15.378    -0.026
    85   1 H        1.938    16.071    -0.027
    86   1 H        1.975     9.824    -0.016
    87   1 H        2.012     7.957    -0.013
    88   1 H        2.059     0.135    -0.000
    89   1 H        2.006     7.478    -0.013
    90   1 H        1.972     1.647    -0.003
    91   1 H        1.909    11.801    -0.020
    92   1 H        1.982    13.078    -0.022
    93   1 H        2.029     4.176    -0.007
    94  15 P        2.770     5.621    -0.001
    95   8 O        2.069    11.949    -0.001
    96   8 O        2.093    23.859    -0.003
    97   8 O        2.305     0.888    -0.000
    98   6 C        2.443     0.298    -0.000
    99   6 C        2.553     0.118    -0.000
   100   8 O        2.395     7.848    -0.001
   101   6 C        2.610     0.274    -0.000
   102   8 O        2.347     4.006    -0.000
   103   6 C        2.596     0.662    -0.000
   104   6 C        2.721     0.225    -0.000
   105   7 N        2.689     0.060    -0.000
   106   6 C        2.740     0.419    -0.000
   107   8 O        2.235     4.776    -0.001
   108   7 N        2.621     0.000     0.000
   109   6 C        2.790     0.340    -0.000
   110   7 N        2.320     0.214    -0.000
   111   6 C        2.695     4.233    -0.000
   112   6 C        2.708     2.795    -0.000
   113   1 H        1.893    12.446    -0.021
   114   1 H        1.882    14.137    -0.024
   115   1 H        1.932    16.804    -0.028
   116   1 H        1.971     9.831    -0.017
   117   1 H        2.003    10.493    -0.018
   118   1 H        2.013     1.697    -0.003
   119   1 H        2.022     5.393    -0.009
   120   1 H        2.003     0.265    -0.000
   121   1 H        1.931    12.078    -0.020
   122   1 H        2.006     9.201    -0.015
   123   1 H        2.045     2.052    -0.003
   124   6 C        2.751     0.764    -0.000
   125   7 N        2.889     0.000     0.000
   126   6 C        3.267     0.001    -0.000
   127   6 C        3.284     0.000     0.000
   128   7 N        2.538     5.449    -0.000
   129   7 N        2.574     5.979    -0.000
   130   6 C        2.768     0.287    -0.000
   131   7 N        2.717     0.000     0.000
   132   6 C        3.032     0.000     0.000
   133   7 N        2.389     0.110    -0.000
   134  15 P        2.763     6.516    -0.001
   135   8 O        2.069    11.579    -0.001
   136   8 O        2.079    25.953    -0.003
   137   8 O        2.307     1.806    -0.000
   138   6 C        2.447     0.370    -0.000
   139   6 C        2.585     0.112    -0.000
   140   8 O        2.447     1.703    -0.000
   141   6 C        2.641     0.137    -0.000
   142   8 O        2.407     1.600    -0.000
   143   6 C        2.594     0.851    -0.000
   144   6 C        2.758     0.026    -0.000
   145   1 H        2.024     5.242    -0.009
   146   1 H        2.031     6.785    -0.011
   147   1 H        1.969    10.202    -0.017
   148   1 H        2.043     0.582    -0.001
   149   1 H        1.907    11.933    -0.020
   150   1 H        1.872    16.613    -0.028
   151   1 H        1.958    13.147    -0.022
   152   1 H        1.982     9.613    -0.016
   153   1 H        1.959    13.353    -0.022
   154   1 H        2.017     4.792    -0.008
   155   1 H        2.067     3.655    -0.006
   156  15 P        2.794     4.889    -0.001
   157   8 O        2.081    10.991    -0.001
   158   8 O        2.102    22.600    -0.003
   159   8 O        2.352     0.111    -0.000
   160   6 C        2.488     0.330    -0.000
   161   6 C        2.586     0.175    -0.000
   162   8 O        2.476     2.658    -0.000
   163   6 C        2.640     0.265    -0.000
   164   8 O        2.364     3.733    -0.000
   165   6 C        2.630     0.428    -0.000
   166   6 C        2.779     0.045    -0.000
   167   7 N        2.910     0.000    -0.000
   168   6 C        2.768     2.617    -0.000
   169   7 N        2.533    11.827    -0.001
   170   6 C        3.148     0.291    -0.000
   171   6 C        2.790     0.095    -0.000
   172   8 O        2.221     8.829    -0.001
   173   7 N        2.700     0.000     0.000
   174   6 C        2.865     0.020    -0.000
   175   7 N        2.332     0.065    -0.000
   176   7 N        2.650     2.607    -0.000
   177   6 C        3.271     0.000    -0.000
   178   1 H        1.942     6.312    -0.011
   179   1 H        1.905    12.796    -0.021
   180   1 H        1.938    17.598    -0.030
   181   1 H        1.985     9.433    -0.016
   182   1 H        2.028     8.491    -0.014
   183   1 H        2.027     0.891    -0.001
   184   1 H        2.058     4.413    -0.007
   185   1 H        2.031     2.632    -0.004
   186   1 H        2.330     0.000     0.000
   187   1 H        2.011     0.579    -0.001
   188   1 H        1.925    17.007    -0.029
   189  15 P        2.777     6.655    -0.001
   190   8 O        2.073    11.586    -0.001
   191   8 O        2.090    25.151    -0.003
   192   8 O        2.331     0.418    -0.000
   193   6 C        2.464     0.390    -0.000
   194   6 C        2.583     0.105    -0.000
   195   8 O        2.453     2.320    -0.000
   196   6 C        2.646     0.002    -0.000
   197   8 O        2.409     0.158    -0.000
   198   6 C        2.610     0.770    -0.000
   199   6 C        2.796     0.039    -0.000
   200   7 N        2.881     0.000    -0.000
   201   6 C        2.710     3.330    -0.000
   202   7 N        2.501    12.076    -0.001
   203   6 C        3.130     0.035    -0.000
   204   6 C        2.796     0.058    -0.000
   205   8 O        2.232     7.770    -0.001
   206   7 N        2.700     0.000     0.000
   207   6 C        2.884     0.000    -0.000
   208   7 N        2.332     0.078    -0.000
   209   7 N        2.697     1.713    -0.000
   210   6 C        3.296     0.000     0.000
   211   1 H        1.910    10.806    -0.018
   212   1 H        1.892    13.532    -0.023
   213   1 H        1.951    15.333    -0.026
   214   1 H        1.987     9.382    -0.016
   215   1 H        2.003     8.569    -0.014
   216   1 H        2.020     4.946    -0.008
   217   1 H        2.123     3.387    -0.006
   218   1 H        1.977     9.863    -0.017
   219   1 H        2.308     0.000     0.000
   220   1 H        1.985     1.583    -0.003
   221   1 H        1.934    15.836    -0.027
   222  15 P        2.790     6.231    -0.001
   223   8 O        2.080    12.342    -0.001
   224   8 O        2.102    22.729    -0.003
   225   8 O        2.332     1.151    -0.000
   226   6 C        2.460     0.379    -0.000
   227   6 C        2.569     0.151    -0.000
   228   8 O        2.413     7.762    -0.001
   229   6 C        2.627     0.233    -0.000
   230   8 O        2.348     4.253    -0.000
   231   6 C        2.647     0.184    -0.000
   232   6 C        2.749     0.182    -0.000
   233   7 N        2.893     0.019    -0.000
   234   6 C        2.772     0.244    -0.000
   235   7 N        2.579     3.124    -0.000
   236   6 C        3.301     0.000     0.000
   237   6 C        2.992     0.000     0.000
   238   7 N        2.374     0.020    -0.000
   239   7 N        2.663     0.000     0.000
   240   6 C        2.718     0.326    -0.000
   241   7 N        2.537     4.977    -0.000
   242   6 C        3.262     0.002    -0.000
   243   1 H        1.908    12.100    -0.020
   244   1 H        1.879    15.548    -0.026
   245   1 H        1.932    17.274    -0.029
   246   1 H        1.989     8.581    -0.014
   247   1 H        2.057     4.435    -0.007
   248   1 H        2.070     0.179    -0.000
   249   1 H        2.034     6.419    -0.011
   250   1 H        2.041     1.713    -0.003
   251   1 H        2.027     0.529    -0.001
   252   1 H        1.965     9.008    -0.015
   253   1 H        2.008     8.609    -0.014
   254  15 P        2.762     9.916    -0.002
   255   8 O        2.065    16.555    -0.002
   256   8 O        2.080    26.435    -0.003
   257   8 O        2.295     3.945    -0.000
   258   6 C        2.451     0.274    -0.000
   259   6 C        2.584     0.016    -0.000
   260   8 O        2.491     0.298    -0.000
   261   6 C        2.613     0.042    -0.000
   262   8 O        2.343     4.927    -0.001
   263   6 C        2.602     0.400    -0.000
   264   6 C        2.756     0.011    -0.000
   265   7 N        2.755     0.000    -0.000
   266   6 C        2.797     0.000     0.000
   267   8 O        2.261     2.527    -0.000
   268   7 N        2.642     0.000     0.000
   269   6 C        2.793     0.119    -0.000
   270   7 N        2.278     0.667    -0.000
   271   6 C        2.689     1.984    -0.000
   272   6 C        2.730     1.136    -0.000
   273   1 H        1.927     8.734    -0.015
   274   1 H        1.876    13.539    -0.023
   275   1 H        1.973    14.087    -0.024
   276   1 H        1.970     9.313    -0.016
   277   1 H        2.003     8.880    -0.015
   278   1 H        2.025     0.538    -0.001
   279   1 H        2.036     5.332    -0.009
   280   1 H        1.950     2.991    -0.005
   281   1 H        1.887    20.018    -0.034
   282   1 H        1.966    15.729    -0.026
   283   1 H        2.023     6.774    -0.011
   284  15 P        2.760     7.923    -0.002
   285   8 O        2.067    27.455    -0.003
   286   8 O        2.077    11.370    -0.001
   287   8 O        2.303     0.359    -0.000
   288   6 C        2.436     0.495    -0.000
   289   6 C        2.527     0.177    -0.000
   290   8 O        2.388     1.052    -0.000
   291   6 C        2.473     0.290    -0.000
   292   8 O        2.048    15.788    -0.002
   293   6 C        2.493     1.133    -0.000
   294   6 C        2.663     0.090    -0.000
   295   7 N        2.731     0.506    -0.000
   296   6 C        2.645     4.403    -0.000
   297   7 N        2.438    13.105    -0.001
   298   6 C        2.929     2.911    -0.000
   299   6 C        2.630     3.913    -0.000
   300   8 O        2.140    14.116    -0.002
   301   7 N        2.525     1.322    -0.000
   302   6 C        2.716     3.252    -0.000
   303   7 N        2.258     2.384    -0.000
   304   7 N        2.541     4.526    -0.000
   305   6 C        3.046     2.688    -0.000
   306   1 H        1.899     9.696    -0.016
   307   1 H        1.876    15.257    -0.026
   308   1 H        1.925    15.847    -0.027
   309   1 H        1.916    10.338    -0.017
   310   1 H        1.729    22.497    -0.038
   311   1 H        1.952    11.132    -0.019
   312   1 H        1.897    17.160    -0.029
   313   1 H        2.000    11.761    -0.020
   314   1 H        1.956     9.101    -0.015
   315   1 H        2.182     0.779    -0.001
   316   1 H        1.934     2.243    -0.004
   317   1 H        1.894    16.835    -0.028
   318   8 O        2.016     7.868    -0.001
   319   6 C        2.320     0.762    -0.000
   320   6 C        2.507     0.125    -0.000
   321   8 O        2.318    10.119    -0.001
   322   6 C        2.591     0.021    -0.000
   323   8 O        2.325     4.813    -0.001
   324   6 C        2.580     0.073    -0.000
   325   6 C        2.639     0.642    -0.000
   326   7 N        2.581     1.827    -0.000
   327   6 C        2.613     6.036    -0.001
   328   8 O        2.148    14.965    -0.002
   329   7 N        2.446     5.475    -0.000
   330   6 C        2.616     6.945    -0.001
   331   7 N        2.198     6.348    -0.000
   332   6 C        2.557     8.690    -0.001
   333   6 C        2.601     5.682    -0.001
   334   1 H        1.819    19.230    -0.032
   335   1 H        1.832    19.244    -0.032
   336   1 H        1.915    17.005    -0.029
   337   1 H        1.987     6.949    -0.012
   338   1 H        2.011     6.230    -0.010
   339   1 H        2.008     0.437    -0.001
   340   1 H        1.968    11.057    -0.019
   341   1 H        1.892     6.997    -0.012
   342   1 H        1.849    23.093    -0.039
   343   1 H        1.912    20.481    -0.034
   344   1 H        1.966     6.669    -0.011
   345   1 H        1.710    25.147    -0.042
   346  15 P        2.771     5.278    -0.001
   347   8 O        2.070    26.318    -0.003
   348   8 O        2.091     6.769    -0.001
   349   8 O        2.346     0.005    -0.000
   350   6 C        2.458     0.458    -0.000
   351   6 C        2.558     0.215    -0.000
   352   8 O        2.397     3.985    -0.000
   353   6 C        2.628     0.228    -0.000
   354   8 O        2.341     4.222    -0.000
   355   6 C        2.616     0.104    -0.000
   356   6 C        2.741     0.014    -0.000
   357   7 N        2.820     0.018    -0.000
   358   6 C        2.669     1.110    -0.000
   359   7 N        2.441    16.095    -0.001
   360   6 C        2.999     0.646    -0.000
   361   6 C        2.711     0.461    -0.000
   362   8 O        2.188    11.120    -0.001
   363   7 N        2.643     0.000     0.000
   364   6 C        2.829     0.021    -0.000
   365   7 N        2.312     0.114    -0.000
   366   7 N        2.644     1.736    -0.000
   367   6 C        3.178     0.001    -0.000
   368   1 H        1.888    10.925    -0.018
   369   1 H        1.895    13.502    -0.023
   370   1 H        1.923    18.063    -0.030
   371   1 H        1.997     6.487    -0.011
   372   1 H        2.020     5.441    -0.009
   373   1 H        2.034     0.155    -0.000
   374   1 H        2.056     5.397    -0.009
   375   1 H        1.976     4.315    -0.007
   376   1 H        2.289     0.000     0.000
   377   1 H        1.981     0.872    -0.001
   378   1 H        1.923    14.893    -0.025
   379  15 P        2.769     6.628    -0.001
   380   8 O        2.072    26.264    -0.003
   381   8 O        2.090    10.034    -0.001
   382   8 O        2.295     2.137    -0.000
   383   6 C        2.441     0.286    -0.000
   384   6 C        2.563     0.066    -0.000
   385   8 O        2.413     4.388    -0.000
   386   6 C        2.617     0.074    -0.000
   387   8 O        2.335     4.529    -0.001
   388   6 C        2.651     0.004    -0.000
   389   6 C        2.732     0.090    -0.000
   390   7 N        2.756     0.000    -0.000
   391   6 C        2.753     0.000     0.000
   392   8 O        2.203     7.585    -0.001
   393   7 N        2.583     0.000     0.000
   394   6 C        2.774     0.000     0.000
   395   8 O        2.246     5.496    -0.001
   396   6 C        2.812     0.001    -0.000
   397   6 C        2.448     2.159    -0.000
   398   6 C        2.823     0.008    -0.000
   399   1 H        1.900    12.860    -0.022
   400   1 H        1.880    15.046    -0.025
   401   1 H        1.948    15.457    -0.026
   402   1 H        1.993     8.163    -0.014
   403   1 H        2.065     3.089    -0.005
   404   1 H        2.095     0.000    -0.000
   405   1 H        2.003     8.015    -0.013
   406   1 H        2.258     0.000     0.000
   407   1 H        1.897    11.407    -0.019
   408   1 H        1.925     8.160    -0.014
   409   1 H        1.895    13.862    -0.023
   410   1 H        2.070     1.888    -0.003
   411  15 P        2.769     6.874    -0.001
   412   8 O        2.069    11.594    -0.001
   413   8 O        2.087    24.956    -0.003
   414   8 O        2.312     1.736    -0.000
   415   6 C        2.451     0.361    -0.000
   416   6 C        2.564     0.080    -0.000
   417   8 O        2.430     2.626    -0.000
   418   6 C        2.618     0.019    -0.000
   419   8 O        2.337     4.912    -0.001
   420   6 C        2.626     0.036    -0.000
   421   6 C        2.727     0.045    -0.000
   422   7 N        2.751     0.000     0.000
   423   6 C        2.781     0.003    -0.000
   424   8 O        2.247     2.827    -0.000
   425   7 N        2.649     0.000     0.000
   426   6 C        2.830     0.000     0.000
   427   7 N        2.316     0.043    -0.000
   428   6 C        2.721     0.563    -0.000
   429   6 C        2.759     0.307    -0.000
   430   1 H        1.908    11.342    -0.019
   431   1 H        1.882    14.669    -0.025
   432   1 H        1.943    16.245    -0.027
   433   1 H        1.991     5.153    -0.009
   434   1 H        2.041     4.723    -0.008
   435   1 H        2.059     0.000    -0.000
   436   1 H        2.003     9.558    -0.016
   437   1 H        1.978     1.209    -0.002
   438   1 H        1.910    11.380    -0.019
   439   1 H        1.991    12.738    -0.021
   440   1 H        2.063     3.512    -0.006
   441  15 P        2.764     8.947    -0.002
   442   8 O        2.071    27.243    -0.003
   443   8 O        2.077    16.182    -0.002
   444   8 O        2.321     1.388    -0.000
   445   6 C        2.455     0.390    -0.000
   446   6 C        2.578     0.102    -0.000
   447   8 O        2.434     2.728    -0.000
   448   6 C        2.628     0.055    -0.000
   449   8 O        2.358     3.752    -0.000
   450   6 C        2.630     0.030    -0.000
   451   6 C        2.725     0.109    -0.000
   452   7 N        2.737     0.000     0.000
   453   6 C        2.785     0.000     0.000
   454   8 O        2.260     2.954    -0.000
   455   7 N        2.637     0.000     0.000
   456   6 C        2.812     0.045    -0.000
   457   7 N        2.307     0.707    -0.000
   458   6 C        2.731     0.314    -0.000
   459   6 C        2.746     0.122    -0.000
   460   1 H        1.906    11.542    -0.019
   461   1 H        1.884    14.896    -0.025
   462   1 H        1.962    14.028    -0.024
   463   1 H        1.985     7.878    -0.013
   464   1 H        2.026     4.266    -0.007
   465   1 H        2.054     0.073    -0.000
   466   1 H        2.012     6.597    -0.011
   467   1 H        1.972     1.539    -0.003
   468   1 H        1.918    13.831    -0.023
   469   1 H        2.011    10.843    -0.018
   470   1 H        2.047     4.343    -0.007
   471  15 P        2.769     7.331    -0.001
   472   8 O        2.066    12.729    -0.001
   473   8 O        2.089    25.027    -0.003
   474   8 O        2.291     3.868    -0.000
   475   6 C        2.452     0.271    -0.000
   476   6 C        2.574     0.051    -0.000
   477   8 O        2.476     0.606    -0.000
   478   6 C        2.616     0.242    -0.000
   479   8 O        2.342     5.383    -0.001
   480   6 C        2.612     0.166    -0.000
   481   6 C        2.750     0.029    -0.000
   482   7 N        2.730     0.005    -0.000
   483   6 C        2.751     0.000     0.000
   484   8 O        2.255     2.773    -0.000
   485   7 N        2.542     0.000     0.000
   486   6 C        2.693     0.641    -0.000
   487   8 O        2.183     8.404    -0.001
   488   6 C        2.759     2.016    -0.000
   489   6 C        2.435     2.735    -0.000
   490   6 C        2.793     2.103    -0.000
   491   1 H        1.927     8.335    -0.014
   492   1 H        1.881    15.244    -0.026
   493   1 H        1.959    15.242    -0.026
   494   1 H        1.972     9.149    -0.015
   495   1 H        2.005    10.546    -0.018
   496   1 H        2.027     0.790    -0.001
   497   1 H        2.029     4.952    -0.008
   498   1 H        2.236     0.000     0.000
   499   1 H        1.874    21.478    -0.036
   500   1 H        1.897    11.701    -0.020
   501   1 H        1.931     7.846    -0.013
   502   1 H        2.068     2.478    -0.004
   503  15 P        2.777     7.370    -0.001
   504   8 O        2.075    26.584    -0.003
   505   8 O        2.098    14.792    -0.002
   506   8 O        2.315     0.063    -0.000
   507   6 C        2.447     0.357    -0.000
   508   6 C        2.566     0.135    -0.000
   509   8 O        2.413     4.830    -0.001
   510   6 C        2.624     0.300    -0.000
   511   8 O        2.352     4.710    -0.001
   512   6 C        2.634     0.102    -0.000
   513   6 C        2.749     0.052    -0.000
   514   7 N        2.885     0.000     0.000
   515   6 C        2.768     0.916    -0.000
   516   7 N        2.564     6.371    -0.000
   517   6 C        3.200     0.000    -0.000
   518   6 C        2.859     0.000    -0.000
   519   8 O        2.280     2.863    -0.000
   520   7 N        2.766     0.000     0.000
   521   6 C        2.900     0.035    -0.000
   522   7 N        2.342     0.687    -0.000
   523   7 N        2.646     2.999    -0.000
   524   6 C        3.269     0.000     0.000
   525   1 H        1.883    14.325    -0.024
   526   1 H        1.893    12.711    -0.021
   527   1 H        1.935    17.148    -0.029
   528   1 H        1.981     6.905    -0.012
   529   1 H        2.037     5.913    -0.010
   530   1 H        2.037     0.319    -0.001
   531   1 H        2.028     6.688    -0.011
   532   1 H        2.027     2.674    -0.004
   533   1 H        2.375     0.000     0.000
   534   1 H        2.008     1.238    -0.002
   535   1 H        1.928    19.340    -0.032
   536  15 P        2.765     9.617    -0.002
   537   8 O        2.069    27.519    -0.003
   538   8 O        2.079    15.016    -0.002
   539   8 O        2.296     2.147    -0.000
   540   6 C        2.452     0.284    -0.000
   541   6 C        2.580     0.071    -0.000
   542   8 O        2.466     1.849    -0.000
   543   6 C        2.629     0.083    -0.000
   544   8 O        2.389     0.704    -0.000
   545   6 C        2.607     0.625    -0.000
   546   6 C        2.784     0.115    -0.000
   547   7 N        2.900    -0.009     0.000
   548   6 C        2.744     3.230    -0.000
   549   7 N        2.519    11.159    -0.001
   550   6 C        3.156     0.020    -0.000
   551   6 C        2.795     0.012    -0.000
   552   8 O        2.216    10.193    -0.001
   553   7 N        2.707     0.000     0.000
   554   6 C        2.909     0.000     0.000
   555   7 N        2.343     0.103    -0.000
   556   7 N        2.702     2.293    -0.000
   557   6 C        3.316     0.001    -0.000
   558   1 H        1.920     9.416    -0.016
   559   1 H        1.881    15.434    -0.026
   560   1 H        1.961    15.212    -0.026
   561   1 H        1.980    10.089    -0.017
   562   1 H        1.998     9.330    -0.016
   563   1 H        2.014     3.585    -0.006
   564   1 H        2.087     4.646    -0.008
   565   1 H        1.998     8.061    -0.014
   566   1 H        2.298     0.000     0.000
   567   1 H        2.005     0.861    -0.001
   568   1 H        1.932    14.570    -0.024
   569  15 P        2.779     6.318    -0.001
   570   8 O        2.077    27.267    -0.003
   571   8 O        2.095    12.728    -0.001
   572   8 O        2.302     2.097    -0.000
   573   6 C        2.442     0.331    -0.000
   574   6 C        2.554     0.146    -0.000
   575   8 O        2.398     7.721    -0.001
   576   6 C        2.619     0.096    -0.000
   577   8 O        2.330     5.800    -0.001
   578   6 C        2.628     0.064    -0.000
   579   6 C        2.732     0.364    -0.000
   580   7 N        2.877     0.026    -0.000
   581   6 C        2.743     0.449    -0.000
   582   7 N        2.541     4.966    -0.000
   583   6 C        3.266     0.000     0.000
   584   6 C        2.974     0.000     0.000
   585   7 N        2.343     0.043    -0.000
   586   7 N        2.671     0.000     0.000
   587   6 C        2.727     0.287    -0.000
   588   7 N        2.542     4.455    -0.000
   589   6 C        3.262     0.005    -0.000
   590   1 H        1.901    13.207    -0.022
   591   1 H        1.870    16.664    -0.028
   592   1 H        1.928    17.340    -0.029
   593   1 H        1.997     7.231    -0.012
   594   1 H        2.044     4.938    -0.008
   595   1 H        2.050     0.001    -0.000
   596   1 H        2.023    10.738    -0.018
   597   1 H        2.021     0.969    -0.002
   598   1 H        1.995     0.644    -0.001
   599   1 H        1.938    12.224    -0.021
   600   1 H        2.009     8.433    -0.014
   601  15 P        2.756     7.490    -0.002
   602   8 O        2.065    27.481    -0.003
   603   8 O        2.077    10.918    -0.001
   604   8 O        2.290     1.170    -0.000
   605   6 C        2.425     0.345    -0.000
   606   6 C        2.526     0.081    -0.000
   607   8 O        2.389     4.217    -0.000
   608   6 C        2.471     0.288    -0.000
   609   8 O        2.049    16.099    -0.002
   610   6 C        2.528     0.680    -0.000
   611   6 C        2.674     0.371    -0.000
   612   7 N        2.696    -0.018     0.000
   613   6 C        2.701     2.640    -0.000
   614   8 O        2.192     5.708    -0.001
   615   7 N        2.549     1.858    -0.000
   616   6 C        2.721     3.725    -0.000
   617   7 N        2.241     4.998    -0.000
   618   6 C        2.662     4.455    -0.000
   619   6 C        2.725     0.411    -0.000
   620   1 H        1.892    12.757    -0.021
   621   1 H        1.867    16.087    -0.027
   622   1 H        1.925    15.670    -0.026
   623   1 H        1.909    13.564    -0.023
   624   1 H        1.734    21.572    -0.036
   625   1 H        1.985    10.808    -0.018
   626   1 H        1.911    15.309    -0.026
   627   1 H        1.969    11.750    -0.020
   628   1 H        1.924     4.932    -0.008
   629   1 H        1.870    19.399    -0.033
   630   1 H        1.964    14.995    -0.025
   631   1 H        2.045     3.303    -0.006
   632   1 H        1.758    25.909    -0.044
   633   1 H        1.788    16.507    -0.028
   634   1 H        1.781    18.829    -0.032
   635   1 H        1.811    13.374    -0.022
   636   1 H        1.752    26.812    -0.045
   637   1 H        1.777    18.912    -0.032
   638   1 H        1.752    26.877    -0.045
   639   1 H        1.760    25.426    -0.043
   640   1 H        1.761    26.195    -0.044
   641   1 H        1.771    18.417    -0.031
   642   1 H        1.769    22.210    -0.037
   643   1 H        1.756    26.552    -0.045
   644   1 H        1.759    26.243    -0.044
   645   1 H        1.752    26.890    -0.045
   646   1 H        1.754    26.715    -0.045
   647   1 H        1.752    26.698    -0.045
   648   1 H        1.754    24.933    -0.042
   649   1 H        1.762    23.713    -0.040

 total SASA / Å² :     4017.410

     #   Z          covCN         q      C6AA      α(0)
     1   8 O        1.654    -0.494    22.769     6.441
     2   6 C        3.673     0.056    19.872     6.389
     3   6 C        3.801     0.092    19.057     6.215
     4   8 O        1.701    -0.330    19.531     5.967
     5   6 C        3.929     0.111    18.710     6.147
     6   8 O        1.658    -0.332    19.584     5.974
     7   6 C        3.815    -0.088    22.160     6.700
     8   6 C        3.737     0.172    17.917     6.040
     9   7 N        2.823    -0.063    22.448     7.037
    10   6 C        3.138     0.094    25.704     8.297
    11   7 N        1.868    -0.293    28.435     7.904
    12   6 C        3.202    -0.014    27.783     8.588
    13   6 C        2.774     0.262    22.594     7.785
    14   8 O        0.860    -0.517    24.162     6.590
    15   7 N        2.710    -0.195    25.227     7.460
    16   6 C        2.837     0.243    22.935     7.848
    17   7 N        2.665    -0.272    27.026     7.721
    18   7 N        1.844    -0.367    30.427     8.175
    19   6 C        3.083     0.119    25.294     8.245
    20   1 H        0.925     0.069     2.092     2.262
    21   1 H        0.924     0.076     2.020     2.223
    22   1 H        0.924     0.062     2.173     2.305
    23   1 H        0.925     0.074     2.040     2.234
    24   1 H        0.924     0.076     2.023     2.224
    25   1 H        0.925     0.078     1.996     2.209
    26   1 H        0.924     0.069     2.101     2.267
    27   1 H        0.926     0.075     2.032     2.229
    28   1 H        0.853     0.240     0.924     1.506
    29   1 H        0.858     0.242     0.914     1.497
    30   1 H        0.860     0.246     0.897     1.484
    31   1 H        0.805     0.355     0.576     1.192
    32  15 P        3.759     0.760   130.663    20.534
    33   8 O        1.614    -0.415    21.173     6.210
    34   8 O        0.808    -0.615    26.523     6.904
    35   8 O        1.657    -0.344    19.804     6.007
    36   6 C        3.917     0.057    19.562     6.286
    37   6 C        3.802     0.094    19.023     6.210
    38   8 O        1.701    -0.319    19.330     5.936
    39   6 C        3.927     0.109    18.731     6.151
    40   8 O        1.657    -0.343    19.774     6.003
    41   6 C        3.820    -0.095    22.304     6.721
    42   6 C        3.737     0.168    17.974     6.050
    43   7 N        2.738    -0.072    22.630     7.065
    44   6 C        2.701     0.323    21.515     7.592
    45   8 O        0.859    -0.506    23.921     6.558
    46   7 N        2.689    -0.189    25.103     7.441
    47   6 C        2.763     0.277    22.320     7.737
    48   8 O        0.859    -0.458    22.876     6.413
    49   6 C        2.950    -0.033    28.827     8.806
    50   6 C        3.754    -0.128    23.018     6.841
    51   6 C        2.842     0.019    27.581     8.607
    52   1 H        0.924     0.091     1.873     2.140
    53   1 H        0.924     0.088     1.894     2.152
    54   1 H        0.924     0.084     1.937     2.176
    55   1 H        0.925     0.077     2.007     2.216
    56   1 H        0.924     0.082     1.960     2.190
    57   1 H        0.925     0.076     2.022     2.224
    58   1 H        0.924     0.075     2.034     2.230
    59   1 H        0.852     0.246     0.899     1.486
    60   1 H        0.924     0.088     1.895     2.153
    61   1 H        0.924     0.078     1.996     2.210
    62   1 H        0.925     0.075     2.027     2.227
    63   1 H        0.926     0.114     1.663     2.016
    64  15 P        3.728     0.762   130.590    20.528
    65   8 O        1.614    -0.411    21.084     6.197
    66   8 O        0.808    -0.612    26.451     6.894
    67   8 O        1.656    -0.330    19.533     5.966
    68   6 C        3.886     0.054    19.619     6.297
    69   6 C        3.782     0.094    19.050     6.217
    70   8 O        1.700    -0.331    19.543     5.969
    71   6 C        3.890     0.109    18.740     6.154
    72   8 O        1.656    -0.352    19.942     6.028
    73   6 C        3.821    -0.090    22.200     6.705
    74   6 C        3.714     0.176    17.903     6.045
    75   7 N        2.738    -0.089    22.970     7.118
    76   6 C        2.751     0.329    21.406     7.576
    77   8 O        0.862    -0.554    25.013     6.706
    78   7 N        1.863    -0.361    30.248     8.152
    79   6 C        2.882     0.196    23.824     8.002
    80   7 N        2.669    -0.231    26.057     7.581
    81   6 C        2.913    -0.102    30.580     9.068
    82   6 C        2.863     0.039    27.125     8.537
    83   1 H        0.924     0.090     1.879     2.143
    84   1 H        0.924     0.093     1.850     2.127
    85   1 H        0.924     0.093     1.854     2.129
    86   1 H        0.924     0.078     1.997     2.210
    87   1 H        0.925     0.084     1.938     2.177
    88   1 H        0.925     0.071     2.077     2.254
    89   1 H        0.925     0.062     2.174     2.306
    90   1 H        0.857     0.240     0.922     1.504
    91   1 H        0.859     0.242     0.916     1.500
    92   1 H        0.926     0.102     1.764     2.077
    93   1 H        0.926     0.098     1.801     2.099
    94  15 P        3.689     0.758   130.730    20.539
    95   8 O        1.614    -0.409    21.047     6.192
    96   8 O        0.808    -0.610    26.391     6.886
    97   8 O        1.656    -0.332    19.570     5.972
    98   6 C        3.879     0.054    19.620     6.298
    99   6 C        3.788     0.091    19.081     6.221
   100   8 O        1.700    -0.332    19.556     5.971
   101   6 C        3.925     0.111    18.699     6.146
   102   8 O        1.656    -0.341    19.736     5.997
   103   6 C        3.826    -0.086    22.119     6.692
   104   6 C        3.729     0.175    17.885     6.037
   105   7 N        2.739    -0.083    22.855     7.100
   106   6 C        2.753     0.330    21.401     7.575
   107   8 O        0.861    -0.535    24.583     6.648
   108   7 N        1.861    -0.358    30.177     8.142
   109   6 C        2.886     0.200    23.748     7.989
   110   7 N        2.671    -0.242    26.316     7.619
   111   6 C        2.917    -0.098    30.474     9.052
   112   6 C        2.869     0.045    26.998     8.517
   113   1 H        0.924     0.088     1.898     2.154
   114   1 H        0.924     0.088     1.895     2.153
   115   1 H        0.924     0.100     1.781     2.087
   116   1 H        0.925     0.076     2.018     2.221
   117   1 H        0.925     0.081     1.964     2.191
   118   1 H        0.925     0.068     2.103     2.268
   119   1 H        0.925     0.074     2.044     2.236
   120   1 H        0.857     0.242     0.914     1.498
   121   1 H        0.860     0.234     0.949     1.526
   122   1 H        0.926     0.085     1.929     2.172
   123   1 H        0.926     0.088     1.897     2.154
   124   6 C        3.187     0.105    25.248     8.198
   125   7 N        2.829    -0.076    22.706     7.077
   126   6 C        3.138     0.136    24.823     8.154
   127   6 C        3.233     0.010    26.938     8.424
   128   7 N        1.868    -0.291    28.386     7.897
   129   7 N        1.826    -0.344    29.774     8.085
   130   6 C        2.920     0.151    24.716     8.153
   131   7 N        1.862    -0.339    29.664     8.073
   132   6 C        2.903     0.173    24.281     8.080
   133   7 N        2.666    -0.257    26.669     7.670
   134  15 P        3.732     0.752   130.919    20.554
   135   8 O        1.614    -0.404    20.956     6.179
   136   8 O        0.808    -0.612    26.448     6.894
   137   8 O        1.657    -0.333    19.590     5.975
   138   6 C        3.901     0.054    19.618     6.296
   139   6 C        3.779     0.092    19.086     6.224
   140   8 O        1.700    -0.322    19.380     5.944
   141   6 C        3.908     0.114    18.672     6.142
   142   8 O        1.657    -0.354    19.979     6.034
   143   6 C        3.823    -0.085    22.104     6.690
   144   6 C        3.704     0.175    17.937     6.055
   145   1 H        0.926     0.076     2.025     2.225
   146   1 H        0.926     0.045     2.387     2.416
   147   1 H        0.860     0.229     0.971     1.543
   148   1 H        0.859     0.233     0.953     1.529
   149   1 H        0.924     0.090     1.883     2.146
   150   1 H        0.924     0.095     1.831     2.116
   151   1 H        0.924     0.095     1.829     2.115
   152   1 H        0.924     0.075     2.031     2.229
   153   1 H        0.924     0.089     1.893     2.151
   154   1 H        0.924     0.070     2.085     2.258
   155   1 H        0.925     0.066     2.130     2.282
   156  15 P        3.721     0.766   130.468    20.518
   157   8 O        1.614    -0.410    21.065     6.195
   158   8 O        0.808    -0.607    26.323     6.877
   159   8 O        1.656    -0.342    19.761     6.001
   160   6 C        3.900     0.052    19.643     6.300
   161   6 C        3.794     0.090    19.094     6.222
   162   8 O        1.702    -0.320    19.348     5.939
   163   6 C        3.953     0.113    18.670     6.140
   164   8 O        1.657    -0.343    19.777     6.003
   165   6 C        3.824    -0.083    22.054     6.683
   166   6 C        3.731     0.174    17.902     6.040
   167   7 N        2.831    -0.071    22.610     7.062
   168   6 C        3.150     0.103    25.464     8.254
   169   7 N        1.870    -0.310    28.878     7.966
   170   6 C        3.218    -0.009    27.536     8.535
   171   6 C        2.772     0.262    22.587     7.784
   172   8 O        0.860    -0.511    24.038     6.573
   173   7 N        2.714    -0.199    25.319     7.473
   174   6 C        2.841     0.244    22.928     7.847
   175   7 N        2.665    -0.262    26.794     7.688
   176   7 N        1.843    -0.364    30.341     8.163
   177   6 C        3.087     0.124    25.193     8.228
   178   1 H        0.925     0.090     1.881     2.145
   179   1 H        0.924     0.089     1.887     2.148
   180   1 H        0.924     0.109     1.709     2.045
   181   1 H        0.924     0.071     2.080     2.255
   182   1 H        0.925     0.071     2.071     2.251
   183   1 H        0.925     0.068     2.104     2.268
   184   1 H        0.924     0.075     2.027     2.227
   185   1 H        0.926     0.048     2.349     2.397
   186   1 H        0.854     0.242     0.916     1.500
   187   1 H        0.858     0.243     0.909     1.494
   188   1 H        0.857     0.255     0.864     1.456
   189  15 P        3.770     0.762   130.580    20.527
   190   8 O        1.614    -0.406    20.988     6.183
   191   8 O        0.808    -0.615    26.515     6.903
   192   8 O        1.657    -0.333    19.597     5.976
   193   6 C        3.915     0.054    19.621     6.296
   194   6 C        3.818     0.092    19.049     6.212
   195   8 O        1.702    -0.328    19.480     5.959
   196   6 C        3.974     0.113    18.668     6.139
   197   8 O        1.658    -0.352    19.951     6.030
   198   6 C        3.829    -0.089    22.165     6.699
   199   6 C        3.768     0.174    17.854     6.022
   200   7 N        2.828    -0.059    22.376     7.026
   201   6 C        3.139     0.095    25.669     8.291
   202   7 N        1.872    -0.301    28.665     7.936
   203   6 C        3.199    -0.015    27.817     8.596
   204   6 C        2.774     0.262    22.593     7.785
   205   8 O        0.860    -0.507    23.946     6.561
   206   7 N        2.709    -0.190    25.113     7.443
   207   6 C        2.843     0.245    22.906     7.844
   208   7 N        2.667    -0.254    26.594     7.659
   209   7 N        1.849    -0.366    30.379     8.169
   210   6 C        3.100     0.128    25.082     8.207
   211   1 H        0.924     0.089     1.891     2.150
   212   1 H        0.925     0.093     1.848     2.126
   213   1 H        0.924     0.097     1.817     2.108
   214   1 H        0.924     0.069     2.101     2.267
   215   1 H        0.924     0.078     1.995     2.209
   216   1 H        0.925     0.083     1.949     2.183
   217   1 H        0.924     0.066     2.131     2.283
   218   1 H        0.926     0.061     2.190     2.314
   219   1 H        0.855     0.241     0.920     1.503
   220   1 H        0.859     0.231     0.960     1.535
   221   1 H        0.860     0.252     0.875     1.465
   222  15 P        3.772     0.778   130.040    20.485
   223   8 O        1.614    -0.416    21.191     6.213
   224   8 O        0.808    -0.606    26.299     6.874
   225   8 O        1.656    -0.338    19.682     5.989
   226   6 C        3.910     0.049    19.697     6.308
   227   6 C        3.812     0.091    19.072     6.216
   228   8 O        1.702    -0.321    19.362     5.941
   229   6 C        3.928     0.112    18.697     6.145
   230   8 O        1.657    -0.345    19.806     6.008
   231   6 C        3.846    -0.092    22.210     6.704
   232   6 C        3.714     0.169    17.998     6.062
   233   7 N        2.830    -0.068    22.564     7.055
   234   6 C        3.170     0.101    25.427     8.238
   235   7 N        1.865    -0.304    28.718     7.943
   236   6 C        3.233     0.009    26.961     8.428
   237   6 C        2.915     0.177    24.210     8.068
   238   7 N        2.668    -0.251    26.525     7.649
   239   7 N        1.865    -0.321    29.184     8.007
   240   6 C        2.933     0.151    24.730     8.156
   241   7 N        1.826    -0.335    29.551     8.055
   242   6 C        3.139     0.133    24.885     8.164
   243   1 H        0.924     0.094     1.842     2.123
   244   1 H        0.924     0.090     1.879     2.144
   245   1 H        0.924     0.102     1.763     2.076
   246   1 H        0.924     0.074     2.041     2.234
   247   1 H        0.924     0.075     2.027     2.226
   248   1 H        0.926     0.083     1.945     2.181
   249   1 H        0.925     0.083     1.946     2.182
   250   1 H        0.926     0.072     2.068     2.249
   251   1 H        0.859     0.237     0.935     1.515
   252   1 H        0.859     0.212     1.049     1.604
   253   1 H        0.926     0.042     2.420     2.433
   254  15 P        3.764     0.770   130.316    20.506
   255   8 O        1.614    -0.395    20.774     6.152
   256   8 O        0.808    -0.591    25.939     6.827
   257   8 O        1.656    -0.346    19.826     6.011
   258   6 C        3.920     0.051    19.655     6.301
   259   6 C        3.835     0.100    18.905     6.186
   260   8 O        1.705    -0.332    19.554     5.970
   261   6 C        3.915     0.103    18.831     6.168
   262   8 O        1.656    -0.339    19.710     5.993
   263   6 C        3.837    -0.088    22.152     6.696
   264   6 C        3.766     0.182    17.734     6.002
   265   7 N        2.744    -0.083    22.851     7.100
   266   6 C        2.762     0.329    21.406     7.577
   267   8 O        0.862    -0.546    24.826     6.680
   268   7 N        1.874    -0.367    30.423     8.176
   269   6 C        2.886     0.201    23.734     7.987
   270   7 N        2.678    -0.229    26.007     7.574
   271   6 C        2.911    -0.095    30.384     9.039
   272   6 C        2.861     0.040    27.109     8.534
   273   1 H        0.924     0.089     1.893     2.151
   274   1 H        0.924     0.095     1.829     2.115
   275   1 H        0.924     0.080     1.979     2.200
   276   1 H        0.925     0.087     1.909     2.161
   277   1 H        0.924     0.084     1.943     2.180
   278   1 H        0.925     0.076     2.024     2.225
   279   1 H        0.924     0.060     2.205     2.322
   280   1 H        0.858     0.239     0.927     1.508
   281   1 H        0.860     0.255     0.863     1.455
   282   1 H        0.926     0.098     1.806     2.102
   283   1 H        0.926     0.101     1.772     2.081
   284  15 P        3.697     0.761   130.614    20.530
   285   8 O        0.808    -0.602    26.202     6.862
   286   8 O        1.614    -0.410    21.074     6.196
   287   8 O        1.656    -0.343    19.779     6.004
   288   6 C        3.867     0.065    19.444     6.270
   289   6 C        3.775     0.097    19.005     6.211
   290   8 O        1.700    -0.348    19.861     6.017
   291   6 C        3.732     0.108    18.895     6.204
   292   8 O        1.655    -0.510    23.106     6.489
   293   6 C        3.810    -0.095    22.313     6.724
   294   6 C        3.709     0.167    18.047     6.072
   295   7 N        2.819    -0.067    22.528     7.049
   296   6 C        3.157     0.091    25.683     8.286
   297   7 N        1.873    -0.299    28.598     7.927
   298   6 C        3.204    -0.014    27.761     8.582
   299   6 C        2.771     0.262    22.579     7.782
   300   8 O        0.860    -0.517    24.162     6.590
   301   7 N        2.712    -0.191    25.135     7.446
   302   6 C        2.843     0.245    22.900     7.843
   303   7 N        2.666    -0.258    26.697     7.674
   304   7 N        1.847    -0.362    30.280     8.155
   305   6 C        3.108     0.124    25.154     8.217
   306   1 H        0.924     0.063     2.161     2.299
   307   1 H        0.924     0.077     2.006     2.215
   308   1 H        0.924     0.079     1.990     2.206
   309   1 H        0.925     0.057     2.239     2.340
   310   1 H        0.805     0.380     0.522     1.135
   311   1 H        0.925     0.068     2.109     2.271
   312   1 H        0.924     0.089     1.891     2.150
   313   1 H        0.924     0.076     2.021     2.223
   314   1 H        0.926     0.062     2.175     2.306
   315   1 H        0.854     0.240     0.925     1.507
   316   1 H        0.859     0.232     0.958     1.533
   317   1 H        0.858     0.252     0.874     1.465
   318   8 O        1.654    -0.512    23.144     6.494
   319   6 C        3.673     0.059    19.822     6.381
   320   6 C        3.774     0.096    19.028     6.215
   321   8 O        1.698    -0.328    19.486     5.960
   322   6 C        3.920     0.109    18.738     6.152
   323   8 O        1.656    -0.345    19.819     6.010
   324   6 C        3.821    -0.084    22.087     6.688
   325   6 C        3.708     0.176    17.912     6.049
   326   7 N        2.740    -0.085    22.896     7.107
   327   6 C        2.757     0.327    21.439     7.582
   328   8 O        0.862    -0.560    25.156     6.725
   329   7 N        1.867    -0.365    30.360     8.167
   330   6 C        2.881     0.199    23.780     7.994
   331   7 N        2.670    -0.243    26.328     7.621
   332   6 C        2.912    -0.100    30.528     9.060
   333   6 C        2.877     0.043    27.037     8.524
   334   1 H        0.925     0.066     2.133     2.284
   335   1 H        0.925     0.057     2.233     2.337
   336   1 H        0.924     0.073     2.055     2.242
   337   1 H        0.924     0.076     2.021     2.223
   338   1 H        0.924     0.071     2.072     2.251
   339   1 H        0.925     0.066     2.135     2.285
   340   1 H        0.925     0.064     2.151     2.294
   341   1 H        0.858     0.245     0.902     1.488
   342   1 H        0.859     0.252     0.874     1.465
   343   1 H        0.926     0.096     1.821     2.110
   344   1 H        0.926     0.103     1.758     2.073
   345   1 H        0.805     0.381     0.522     1.134
   346  15 P        3.719     0.763   130.577    20.527
   347   8 O        0.808    -0.616    26.547     6.907
   348   8 O        1.614    -0.411    21.091     6.198
   349   8 O        1.656    -0.339    19.697     5.991
   350   6 C        3.875     0.065    19.449     6.271
   351   6 C        3.797     0.094    19.041     6.213
   352   8 O        1.701    -0.324    19.412     5.949
   353   6 C        3.935     0.109    18.728     6.150
   354   8 O        1.656    -0.347    19.844     6.013
   355   6 C        3.825    -0.094    22.274     6.716
   356   6 C        3.725     0.167    18.008     6.059
   357   7 N        2.815    -0.062    22.444     7.036
   358   6 C        3.131     0.089    25.816     8.318
   359   7 N        1.871    -0.295    28.496     7.913
   360   6 C        3.178    -0.016    27.982     8.637
   361   6 C        2.774     0.262    22.592     7.785
   362   8 O        0.861    -0.525    24.350     6.616
   363   7 N        2.710    -0.197    25.266     7.465
   364   6 C        2.852     0.247    22.860     7.836
   365   7 N        2.675    -0.263    26.823     7.692
   366   7 N        1.855    -0.370    30.498     8.185
   367   6 C        3.110     0.122    25.188     8.222
   368   1 H        0.924     0.077     2.012     2.218
   369   1 H        0.924     0.076     2.016     2.221
   370   1 H        0.924     0.095     1.833     2.117
   371   1 H        0.924     0.072     2.068     2.249
   372   1 H        0.925     0.089     1.892     2.151
   373   1 H        0.925     0.088     1.901     2.156
   374   1 H        0.925     0.081     1.967     2.193
   375   1 H        0.926     0.073     2.057     2.243
   376   1 H        0.852     0.230     0.967     1.541
   377   1 H        0.858     0.237     0.936     1.515
   378   1 H        0.860     0.245     0.904     1.489
   379  15 P        3.748     0.770   130.321    20.507
   380   8 O        0.808    -0.614    26.484     6.898
   381   8 O        1.614    -0.409    21.047     6.192
   382   8 O        1.656    -0.333    19.599     5.976
   383   6 C        3.905     0.061    19.505     6.278
   384   6 C        3.801     0.093    19.048     6.214
   385   8 O        1.702    -0.317    19.288     5.929
   386   6 C        3.894     0.108    18.767     6.158
   387   8 O        1.655    -0.352    19.945     6.029
   388   6 C        3.829    -0.099    22.374     6.730
   389   6 C        3.728     0.168    17.987     6.055
   390   7 N        2.739    -0.062    22.438     7.035
   391   6 C        2.699     0.322    21.524     7.593
   392   8 O        0.858    -0.502    23.827     6.544
   393   7 N        2.686    -0.193    25.186     7.454
   394   6 C        2.763     0.278    22.295     7.733
   395   8 O        0.859    -0.476    23.263     6.467
   396   6 C        2.951    -0.033    28.813     8.804
   397   6 C        3.755    -0.133    23.104     6.854
   398   6 C        2.848     0.018    27.593     8.609
   399   1 H        0.924     0.083     1.948     2.183
   400   1 H        0.925     0.087     1.909     2.161
   401   1 H        0.924     0.089     1.892     2.151
   402   1 H        0.924     0.079     1.989     2.205
   403   1 H        0.925     0.087     1.913     2.163
   404   1 H        0.925     0.085     1.927     2.171
   405   1 H        0.925     0.079     1.994     2.208
   406   1 H        0.851     0.239     0.928     1.509
   407   1 H        0.925     0.088     1.898     2.154
   408   1 H        0.924     0.070     2.089     2.260
   409   1 H        0.925     0.089     1.886     2.148
   410   1 H        0.926     0.120     1.614     1.987
   411  15 P        3.721     0.766   130.452    20.517
   412   8 O        1.614    -0.405    20.959     6.179
   413   8 O        0.808    -0.605    26.275     6.871
   414   8 O        1.656    -0.328    19.511     5.963
   415   6 C        3.910     0.053    19.628     6.297
   416   6 C        3.786     0.097    18.999     6.208
   417   8 O        1.701    -0.330    19.521     5.965
   418   6 C        3.893     0.105    18.813     6.166
   419   8 O        1.656    -0.358    20.057     6.046
   420   6 C        3.821    -0.098    22.353     6.728
   421   6 C        3.723     0.176    17.884     6.039
   422   7 N        2.742    -0.082    22.841     7.098
   423   6 C        2.750     0.327    21.443     7.583
   424   8 O        0.861    -0.552    24.970     6.700
   425   7 N        1.859    -0.369    30.487     8.184
   426   6 C        2.881     0.194    23.868     8.009
   427   7 N        2.667    -0.237    26.191     7.601
   428   6 C        2.917    -0.109    30.747     9.093
   429   6 C        2.878     0.037    27.157     8.543
   430   1 H        0.924     0.086     1.922     2.168
   431   1 H        0.924     0.093     1.848     2.126
   432   1 H        0.924     0.088     1.901     2.156
   433   1 H        0.924     0.078     2.004     2.214
   434   1 H        0.924     0.083     1.946     2.182
   435   1 H        0.926     0.090     1.876     2.142
   436   1 H        0.925     0.062     2.173     2.305
   437   1 H        0.857     0.236     0.940     1.519
   438   1 H        0.859     0.245     0.902     1.488
   439   1 H        0.926     0.103     1.761     2.075
   440   1 H        0.926     0.103     1.754     2.071
   441  15 P        3.711     0.785   129.827    20.468
   442   8 O        0.808    -0.605    26.278     6.872
   443   8 O        1.614    -0.400    20.878     6.167
   444   8 O        1.656    -0.337    19.676     5.988
   445   6 C        3.897     0.063    19.473     6.273
   446   6 C        3.822     0.098    18.956     6.196
   447   8 O        1.703    -0.329    19.512     5.964
   448   6 C        3.943     0.107    18.758     6.154
   449   8 O        1.657    -0.347    19.841     6.013
   450   6 C        3.837    -0.094    22.269     6.714
   451   6 C        3.728     0.172    17.935     6.046
   452   7 N        2.737    -0.079    22.783     7.089
   453   6 C        2.746     0.326    21.461     7.585
   454   8 O        0.861    -0.531    24.480     6.634
   455   7 N        1.853    -0.370    30.500     8.185
   456   6 C        2.877     0.199    23.776     7.993
   457   7 N        2.664    -0.240    26.279     7.614
   458   6 C        2.917    -0.100    30.525     9.060
   459   6 C        2.865     0.037    27.162     8.543
   460   1 H        0.924     0.078     1.999     2.211
   461   1 H        0.924     0.088     1.897     2.154
   462   1 H        0.924     0.081     1.968     2.194
   463   1 H        0.924     0.080     1.979     2.200
   464   1 H        0.924     0.081     1.966     2.192
   465   1 H        0.925     0.083     1.945     2.181
   466   1 H        0.924     0.075     2.032     2.229
   467   1 H        0.857     0.236     0.939     1.518
   468   1 H        0.860     0.244     0.907     1.492
   469   1 H        0.926     0.092     1.864     2.135
   470   1 H        0.926     0.099     1.794     2.094
   471  15 P        3.773     0.773   130.217    20.499
   472   8 O        1.614    -0.406    20.992     6.184
   473   8 O        0.808    -0.609    26.365     6.883
   474   8 O        1.656    -0.331    19.565     5.971
   475   6 C        3.906     0.053    19.633     6.298
   476   6 C        3.807     0.095    19.006     6.206
   477   8 O        1.708    -0.323    19.392     5.946
   478   6 C        3.915     0.098    18.917     6.182
   479   8 O        1.655    -0.355    20.005     6.038
   480   6 C        3.844    -0.095    22.277     6.714
   481   6 C        3.746     0.173    17.888     6.033
   482   7 N        2.740    -0.050    22.212     7.000
   483   6 C        2.698     0.326    21.465     7.583
   484   8 O        0.858    -0.496    23.701     6.527
   485   7 N        2.689    -0.177    24.838     7.402
   486   6 C        2.761     0.279    22.280     7.730
   487   8 O        0.859    -0.479    23.333     6.476
   488   6 C        2.950    -0.036    28.884     8.815
   489   6 C        3.755    -0.132    23.085     6.851
   490   6 C        2.855     0.019    27.577     8.607
   491   1 H        0.925     0.085     1.931     2.173
   492   1 H        0.925     0.096     1.826     2.113
   493   1 H        0.924     0.088     1.896     2.153
   494   1 H        0.924     0.084     1.937     2.176
   495   1 H        0.924     0.100     1.786     2.090
   496   1 H        0.925     0.073     2.052     2.240
   497   1 H        0.924     0.076     2.023     2.224
   498   1 H        0.854     0.230     0.965     1.539
   499   1 H        0.925     0.093     1.852     2.128
   500   1 H        0.924     0.078     1.999     2.211
   501   1 H        0.925     0.070     2.088     2.260
   502   1 H        0.926     0.115     1.651     2.009
   503  15 P        3.663     0.761   130.640    20.532
   504   8 O        0.808    -0.583    25.732     6.800
   505   8 O        1.614    -0.390    20.673     6.137
   506   8 O        1.655    -0.343    19.775     6.003
   507   6 C        3.839     0.055    19.627     6.303
   508   6 C        3.796     0.093    19.049     6.215
   509   8 O        1.701    -0.324    19.418     5.949
   510   6 C        3.926     0.105    18.799     6.162
   511   8 O        1.656    -0.352    19.951     6.030
   512   6 C        3.832    -0.095    22.278     6.716
   513   6 C        3.722     0.171    17.963     6.053
   514   7 N        2.833    -0.056    22.326     7.018
   515   6 C        3.203     0.100    25.250     8.187
   516   7 N        1.866    -0.297    28.552     7.920
   517   6 C        3.259    -0.010    27.116     8.416
   518   6 C        2.773     0.260    22.626     7.791
   519   8 O        0.860    -0.514    24.085     6.580
   520   7 N        2.715    -0.207    25.508     7.501
   521   6 C        2.841     0.245    22.897     7.842
   522   7 N        2.667    -0.270    26.986     7.715
   523   7 N        1.842    -0.359    30.184     8.142
   524   6 C        3.097     0.122    25.223     8.231
   525   1 H        0.925     0.085     1.929     2.172
   526   1 H        0.924     0.082     1.961     2.190
   527   1 H        0.924     0.095     1.836     2.119
   528   1 H        0.924     0.079     1.992     2.207
   529   1 H        0.925     0.088     1.895     2.153
   530   1 H        0.925     0.084     1.934     2.175
   531   1 H        0.925     0.075     2.027     2.227
   532   1 H        0.926     0.069     2.095     2.263
   533   1 H        0.852     0.231     0.960     1.536
   534   1 H        0.858     0.235     0.944     1.522
   535   1 H        0.859     0.256     0.859     1.452
   536  15 P        3.734     0.767   130.423    20.515
   537   8 O        0.808    -0.587    25.830     6.813
   538   8 O        1.614    -0.393    20.729     6.145
   539   8 O        1.656    -0.344    19.787     6.005
   540   6 C        3.892     0.062    19.488     6.276
   541   6 C        3.804     0.094    19.031     6.211
   542   8 O        1.703    -0.334    19.598     5.977
   543   6 C        3.946     0.111    18.709     6.146
   544   8 O        1.657    -0.360    20.096     6.052
   545   6 C        3.832    -0.094    22.273     6.715
   546   6 C        3.740     0.173    17.909     6.038
   547   7 N        2.833    -0.058    22.364     7.024
   548   6 C        3.148     0.089    25.772     8.304
   549   7 N        1.870    -0.284    28.219     7.874
   550   6 C        3.221    -0.012    27.575     8.537
   551   6 C        2.773     0.264    22.544     7.776
   552   8 O        0.859    -0.494    23.658     6.521
   553   7 N        2.711    -0.195    25.220     7.459
   554   6 C        2.829     0.244    22.924     7.846
   555   7 N        2.661    -0.258    26.704     7.675
   556   7 N        1.840    -0.379    30.748     8.218
   557   6 C        3.072     0.121    25.263     8.241
   558   1 H        0.924     0.076     2.019     2.222
   559   1 H        0.924     0.080     1.978     2.199
   560   1 H        0.924     0.081     1.968     2.194
   561   1 H        0.924     0.072     2.066     2.248
   562   1 H        0.924     0.095     1.828     2.114
   563   1 H        0.925     0.088     1.895     2.153
   564   1 H        0.924     0.064     2.155     2.296
   565   1 H        0.926     0.079     1.989     2.206
   566   1 H        0.854     0.240     0.924     1.506
   567   1 H        0.858     0.231     0.961     1.536
   568   1 H        0.858     0.238     0.930     1.511
   569  15 P        3.717     0.770   130.335    20.508
   570   8 O        0.808    -0.601    26.174     6.858
   571   8 O        1.614    -0.392    20.721     6.144
   572   8 O        1.655    -0.333    19.595     5.976
[...]
                           404 H    0.961
   389   6 C    3.928 --   388 C    0.978   385 O    0.978   405 H    0.954
                           390 N    0.951
   390   7 N    3.577 --   398 C    1.163   391 C    1.121   389 C    0.951
                           392 O    0.132
   391   6 C    3.959 --   392 O    1.593   393 N    1.161   390 N    1.121
   392   8 O    1.934 --   391 C    1.593   390 N    0.132   393 N    0.131
   393   7 N    3.526 --   391 C    1.161   394 C    1.148   406 H    0.833
                           395 O    0.138   392 O    0.131
   394   6 C    3.934 --   395 O    1.606   393 N    1.148   396 C    1.083
   395   8 O    2.006 --   394 C    1.606   393 N    0.138
   396   6 C    3.979 --   398 C    1.651   394 C    1.083   397 C    1.022
   397   6 C    3.980 --   396 C    1.022   409 H    0.979   408 H    0.966
                           407 H    0.965
   398   6 C    3.948 --   396 C    1.651   390 N    1.163   410 H    0.944
   399   1 H    0.993 --   383 C    0.966
   400   1 H    0.992 --   383 C    0.965
   401   1 H    0.991 --   384 C    0.949
   402   1 H    0.993 --   386 C    0.962
   403   1 H    0.992 --   388 C    0.965
   404   1 H    0.993 --   388 C    0.961
   405   1 H    0.993 --   389 C    0.954
   406   1 H    0.942 --   393 N    0.833
   407   1 H    0.991 --   397 C    0.965
   408   1 H    0.994 --   397 C    0.966
   409   1 H    0.992 --   397 C    0.979
   410   1 H    0.985 --   398 C    0.944
   411  15 P    5.425 --   413 O    1.736   412 O    1.382   414 O    1.144
                           387 O    1.104
   412   8 O    2.274 --   411 P    1.382   638 H    0.730
   413   8 O    1.944 --   411 P    1.736
   414   8 O    2.270 --   411 P    1.144   415 C    0.934
   415   6 C    3.920 --   416 C    0.989   430 H    0.965   431 H    0.965
                           414 O    0.934
   416   6 C    3.942 --   415 C    0.989   418 C    0.966   417 O    0.964
                           432 H    0.950
   417   8 O    2.073 --   421 C    0.975   416 C    0.964
   418   6 C    3.927 --   420 C    0.992   416 C    0.966   433 H    0.957
                           419 O    0.930
   419   8 O    2.249 --   441 P    1.111   418 C    0.930
   420   6 C    3.984 --   418 C    0.992   421 C    0.977   434 H    0.968
                           435 H    0.963
   421   6 C    3.933 --   420 C    0.977   417 O    0.975   436 H    0.957
                           422 N    0.954
   422   7 N    3.582 --   429 C    1.219   423 C    1.070   421 C    0.954
                           424 O    0.110
   423   6 C    3.952 --   424 O    1.536   425 N    1.252   422 N    1.070
   424   8 O    1.902 --   423 C    1.536   425 N    0.123   422 N    0.110
   425   7 N    3.062 --   426 C    1.333   423 C    1.252   424 O    0.123
                           427 N    0.111
   426   6 C    3.965 --   427 N    1.391   425 N    1.333   428 C    1.152
   427   7 N    3.467 --   426 C    1.391   438 H    0.915   437 H    0.874
                           425 N    0.111
   428   6 C    3.971 --   429 C    1.638   426 C    1.152   439 H    0.956
   429   6 C    3.954 --   428 C    1.638   422 N    1.219   440 H    0.948
   430   1 H    0.992 --   415 C    0.965
   431   1 H    0.991 --   415 C    0.965
   432   1 H    0.991 --   416 C    0.950
   433   1 H    0.994 --   418 C    0.957
   434   1 H    0.993 --   420 C    0.968
   435   1 H    0.992 --   420 C    0.963
   436   1 H    0.996 --   421 C    0.957
   437   1 H    0.943 --   427 N    0.874
   438   1 H    0.939 --   427 N    0.915
   439   1 H    0.989 --   428 C    0.956
   440   1 H    0.988 --   429 C    0.948
   441  15 P    5.417 --   442 O    1.745   443 O    1.366   444 O    1.126
                           419 O    1.111
   442   8 O    1.954 --   441 P    1.745
   443   8 O    2.268 --   441 P    1.366   637 H    0.740
   444   8 O    2.260 --   441 P    1.126   445 C    0.935
   445   6 C    3.919 --   446 C    0.990   460 H    0.966   461 H    0.965
                           444 O    0.935
   446   6 C    3.946 --   445 C    0.990   448 C    0.971   447 O    0.963
                           462 H    0.950
   447   8 O    2.066 --   451 C    0.970   446 C    0.963
   448   6 C    3.924 --   450 C    0.984   446 C    0.971   463 H    0.960
                           449 O    0.939
   449   8 O    2.259 --   471 P    1.108   448 C    0.939
   450   6 C    3.984 --   448 C    0.984   451 C    0.981   464 H    0.970
                           465 H    0.964
   451   6 C    3.928 --   450 C    0.981   447 O    0.970   466 H    0.954
                           452 N    0.953
   452   7 N    3.578 --   459 C    1.205   453 C    1.081   451 C    0.953
                           454 O    0.112
   453   6 C    3.953 --   454 O    1.536   455 N    1.243   452 N    1.081
   454   8 O    1.928 --   453 C    1.536   455 N    0.122   452 N    0.112
   455   7 N    3.066 --   456 C    1.336   453 C    1.243   454 O    0.122
                           457 N    0.113
   456   6 C    3.966 --   457 N    1.394   455 N    1.336   458 C    1.149
   457   7 N    3.469 --   456 C    1.394   468 H    0.918   467 H    0.868
                           455 N    0.113
   458   6 C    3.975 --   459 C    1.652   456 C    1.149   469 H    0.959
   459   6 C    3.956 --   458 C    1.652   452 N    1.205   470 H    0.952
   460   1 H    0.994 --   445 C    0.966
   461   1 H    0.992 --   445 C    0.965
   462   1 H    0.993 --   446 C    0.950
   463   1 H    0.993 --   448 C    0.960
   464   1 H    0.993 --   450 C    0.970
   465   1 H    0.993 --   450 C    0.964
   466   1 H    0.994 --   451 C    0.954
   467   1 H    0.943 --   457 N    0.868
   468   1 H    0.939 --   457 N    0.918
   469   1 H    0.991 --   458 C    0.959
   470   1 H    0.989 --   459 C    0.952
   471  15 P    5.422 --   473 O    1.737   472 O    1.380   474 O    1.135
                           449 O    1.108
   472   8 O    2.271 --   471 P    1.380   636 H    0.729
   473   8 O    1.942 --   471 P    1.737
   474   8 O    2.262 --   471 P    1.135   475 C    0.936
   475   6 C    3.920 --   476 C    0.988   492 H    0.964   491 H    0.963
                           474 O    0.936
   476   6 C    3.945 --   475 C    0.988   477 O    0.966   478 C    0.965
                           493 H    0.949
   477   8 O    2.062 --   476 C    0.966   481 C    0.964
   478   6 C    3.924 --   480 C    0.991   476 C    0.965   494 H    0.958
                           479 O    0.926
   479   8 O    2.245 --   503 P    1.105   478 C    0.926
   480   6 C    3.985 --   478 C    0.991   481 C    0.984   495 H    0.963
                           496 H    0.960
   481   6 C    3.929 --   480 C    0.984   477 O    0.964   482 N    0.960
                           497 H    0.953
   482   7 N    3.584 --   490 C    1.163   483 C    1.130   481 C    0.960
                           484 O    0.125
   483   6 C    3.959 --   484 O    1.564   485 N    1.174   482 N    1.130
   484   8 O    1.955 --   483 C    1.564   485 N    0.131   482 N    0.125
   485   7 N    3.535 --   483 C    1.174   486 C    1.131   498 H    0.860
                           487 O    0.136   484 O    0.131
   486   6 C    3.936 --   487 O    1.637   485 N    1.131   488 C    1.076
   487   8 O    1.959 --   486 C    1.637   485 N    0.136
   488   6 C    3.979 --   490 C    1.656   486 C    1.076   489 C    1.021
   489   6 C    3.982 --   488 C    1.021   500 H    0.980   501 H    0.968
                           499 H    0.966
   490   6 C    3.949 --   488 C    1.656   482 N    1.163   502 H    0.945
   491   1 H    0.992 --   475 C    0.963
   492   1 H    0.990 --   475 C    0.964
   493   1 H    0.991 --   476 C    0.949
   494   1 H    0.992 --   478 C    0.958
   495   1 H    0.989 --   480 C    0.963
   496   1 H    0.994 --   480 C    0.960
   497   1 H    0.994 --   481 C    0.953
   498   1 H    0.946 --   485 N    0.860
   499   1 H    0.990 --   489 C    0.966
   500   1 H    0.993 --   489 C    0.980
   501   1 H    0.994 --   489 C    0.968
   502   1 H    0.986 --   490 C    0.945
   503  15 P    5.438 --   504 O    1.772   505 O    1.375   506 O    1.118
                           479 O    1.105
   504   8 O    1.975 --   503 P    1.772
   505   8 O    2.286 --   503 P    1.375   635 H    0.754
   506   8 O    2.257 --   503 P    1.118   507 C    0.937
   507   6 C    3.918 --   508 C    0.982   525 H    0.968   526 H    0.966
                           506 O    0.937
   508   6 C    3.945 --   507 C    0.982   510 C    0.969   509 O    0.968
                           527 H    0.949
   509   8 O    2.075 --   513 C    0.971   508 C    0.968
   510   6 C    3.927 --   512 C    0.994   508 C    0.969   528 H    0.957
                           511 O    0.929
   511   8 O    2.256 --   536 P    1.115   510 C    0.929
   512   6 C    3.986 --   510 C    0.994   513 C    0.981   530 H    0.964
                           529 H    0.964
   513   6 C    3.931 --   512 C    0.981   509 O    0.971   514 N    0.958
                           531 H    0.955
   514   7 N    3.596 --   515 C    1.203   524 C    1.167   513 C    0.958
                           516 N    0.108
   515   6 C    3.944 --   516 N    1.611   514 N    1.203   532 H    0.951
   516   7 N    3.009 --   515 C    1.611   517 C    1.187   514 N    0.108
   517   6 C    3.962 --   524 C    1.347   516 N    1.187   518 C    1.141
   518   6 C    3.948 --   519 O    1.540   520 N    1.145   517 C    1.141
   519   8 O    1.956 --   518 C    1.540   520 N    0.130
   520   7 N    3.511 --   521 C    1.175   518 C    1.145   533 H    0.829
                           519 O    0.130
   521   6 C    3.965 --   523 N    1.356   522 N    1.342   520 N    1.175
   522   7 N    3.400 --   521 C    1.342   535 H    0.913   534 H    0.877
                           523 N    0.108
   523   7 N    2.953 --   521 C    1.356   524 C    1.233   522 N    0.108
   524   6 C    3.960 --   517 C    1.347   523 N    1.233   514 N    1.167
   525   1 H    0.992 --   507 C    0.968
   526   1 H    0.993 --   507 C    0.966
   527   1 H    0.990 --   508 C    0.949
   528   1 H    0.993 --   510 C    0.957
   529   1 H    0.992 --   512 C    0.964
   530   1 H    0.993 --   512 C    0.964
   531   1 H    0.994 --   513 C    0.955
   532   1 H    0.994 --   515 C    0.951
   533   1 H    0.946 --   520 N    0.829
   534   1 H    0.944 --   522 N    0.877
   535   1 H    0.933 --   522 N    0.913
   536  15 P    5.441 --   537 O    1.774   538 O    1.391   511 O    1.115
                           539 O    1.101
   537   8 O    1.971 --   536 P    1.774
   538   8 O    2.285 --   536 P    1.391   634 H    0.739
   539   8 O    2.248 --   536 P    1.101   540 C    0.943
   540   6 C    3.925 --   541 C    0.988   559 H    0.967   558 H    0.966
                           539 O    0.943
   541   6 C    3.947 --   540 C    0.988   543 C    0.967   542 O    0.964
                           560 H    0.950
   542   8 O    2.058 --   541 C    0.964   546 C    0.960
   543   6 C    3.926 --   545 C    0.992   541 C    0.967   561 H    0.961
                           544 O    0.928
   544   8 O    2.240 --   569 P    1.097   543 C    0.928
   545   6 C    3.983 --   543 C    0.992   546 C    0.980   563 H    0.965
                           562 H    0.965
   546   6 C    3.932 --   545 C    0.980   547 N    0.969   542 O    0.960
                           564 H    0.955
   547   7 N    3.593 --   548 C    1.194   557 C    1.164   546 C    0.969
                           549 N    0.109
   548   6 C    3.939 --   549 N    1.613   547 N    1.194   565 H    0.954
   549   7 N    3.012 --   548 C    1.613   550 C    1.191   547 N    0.109
   550   6 C    3.963 --   557 C    1.360   549 N    1.191   551 C    1.129
   551   6 C    3.949 --   552 O    1.569   553 N    1.137   550 C    1.129
   552   8 O    1.963 --   551 C    1.569   553 N    0.132
   553   7 N    3.516 --   554 C    1.182   551 C    1.137   566 H    0.840
                           552 O    0.132
   554   6 C    3.966 --   556 N    1.356   555 N    1.336   553 N    1.182
   555   7 N    3.406 --   554 C    1.336   568 H    0.921   567 H    0.885
                           556 N    0.107
   556   7 N    2.944 --   554 C    1.356   557 C    1.224   555 N    0.107
   557   6 C    3.960 --   550 C    1.360   556 N    1.224   547 N    1.164
   558   1 H    0.994 --   540 C    0.966
   559   1 H    0.993 --   540 C    0.967
   560   1 H    0.993 --   541 C    0.950
   561   1 H    0.994 --   543 C    0.961
   562   1 H    0.990 --   545 C    0.965
   563   1 H    0.992 --   545 C    0.965
   564   1 H    0.996 --   546 C    0.955
   565   1 H    0.993 --   548 C    0.954
   566   1 H    0.942 --   553 N    0.840
   567   1 H    0.946 --   555 N    0.885
   568   1 H    0.942 --   555 N    0.921
   569  15 P    5.425 --   570 O    1.750   571 O    1.380   572 O    1.129
                           544 O    1.097
   570   8 O    1.957 --   569 P    1.750
   571   8 O    2.280 --   569 P    1.380   633 H    0.742
   572   8 O    2.264 --   569 P    1.129   573 C    0.939
   573   6 C    3.920 --   574 C    0.984   590 H    0.970   591 H    0.966
                           572 O    0.939
   574   6 C    3.946 --   573 C    0.984   576 C    0.970   575 O    0.967
                           592 H    0.950
   575   8 O    2.076 --   579 C    0.976   574 C    0.967
   576   6 C    3.925 --   578 C    0.992   574 C    0.970   593 H    0.960
                           577 O    0.928
   577   8 O    2.281 --   601 P    1.153   576 C    0.928
   578   6 C    3.986 --   576 C    0.992   579 C    0.979   594 H    0.968
                           595 H    0.963
   579   6 C    3.932 --   578 C    0.979   575 O    0.976   580 N    0.956
                           596 H    0.955
   580   7 N    3.601 --   581 C    1.210   589 C    1.165   579 C    0.956
                           582 N    0.114
   581   6 C    3.946 --   582 N    1.598   580 N    1.210   597 H    0.950
   582   7 N    3.000 --   581 C    1.598   583 C    1.180   580 N    0.114
   583   6 C    3.969 --   589 C    1.340   582 N    1.180   584 C    1.179
   584   6 C    3.970 --   585 N    1.365   586 N    1.291   583 C    1.179
   585   7 N    3.453 --   584 C    1.365   599 H    0.927   598 H    0.864
   586   7 N    3.102 --   587 C    1.407   584 C    1.291
   587   6 C    3.970 --   588 N    1.465   586 N    1.407   600 H    0.959
   588   7 N    2.999 --   587 C    1.465   589 C    1.248
   589   6 C    3.960 --   583 C    1.340   588 N    1.248   580 N    1.165
   590   1 H    0.994 --   573 C    0.970
   591   1 H    0.992 --   573 C    0.966
   592   1 H    0.991 --   574 C    0.950
   593   1 H    0.993 --   576 C    0.960
   594   1 H    0.992 --   578 C    0.968
   595   1 H    0.992 --   578 C    0.963
   596   1 H    0.995 --   579 C    0.955
   597   1 H    0.992 --   581 C    0.950
   598   1 H    0.939 --   585 N    0.864
   599   1 H    0.947 --   585 N    0.927
   600   1 H    0.998 --   587 C    0.959
   601  15 P    5.451 --   602 O    1.739   603 O    1.378   577 O    1.153
                           604 O    1.121
   602   8 O    1.951 --   601 P    1.739
   603   8 O    2.266 --   601 P    1.378   632 H    0.725
   604   8 O    2.264 --   601 P    1.121   605 C    0.938
   605   6 C    3.923 --   606 C    0.989   620 H    0.970   621 H    0.967
                           604 O    0.938
   606   6 C    3.940 --   605 C    0.989   608 C    0.968   607 O    0.958
                           622 H    0.953
   607   8 O    2.057 --   611 C    0.969   606 C    0.958
   608   6 C    3.959 --   609 O    0.993   610 C    0.988   606 C    0.968
                           623 H    0.962
   609   8 O    1.902 --   608 C    0.993   624 H    0.842
   610   6 C    3.986 --   608 C    0.988   611 C    0.975   626 H    0.972
                           625 H    0.968
   611   6 C    3.928 --   610 C    0.975   607 O    0.969   612 N    0.958
                           627 H    0.956
   612   7 N    3.568 --   619 C    1.199   613 C    1.076   611 C    0.958
                           614 O    0.110
   613   6 C    3.951 --   614 O    1.526   615 N    1.253   612 N    1.076
   614   8 O    1.915 --   613 C    1.526   615 N    0.121   612 N    0.110
   615   7 N    3.069 --   616 C    1.336   613 C    1.253   614 O    0.121
                           617 N    0.110
   616   6 C    3.967 --   617 N    1.399   615 N    1.336   618 C    1.142
   617   7 N    3.465 --   616 C    1.399   629 H    0.912   628 H    0.877
                           615 N    0.110
   618   6 C    3.973 --   619 C    1.659   616 C    1.142   630 H    0.958
   619   6 C    3.955 --   618 C    1.659   612 N    1.199   631 H    0.950
   620   1 H    0.996 --   605 C    0.970
   621   1 H    0.993 --   605 C    0.967
   622   1 H    0.993 --   606 C    0.953
   623   1 H    0.996 --   608 C    0.962
   624   1 H    0.858 --   609 O    0.842
   625   1 H    0.995 --   610 C    0.968
   626   1 H    0.994 --   610 C    0.972
   627   1 H    0.995 --   611 C    0.956
   628   1 H    0.937 --   617 N    0.877
   629   1 H    0.934 --   617 N    0.912
   630   1 H    0.989 --   618 C    0.958
   631   1 H    0.990 --   619 C    0.950
   632   1 H    0.760 --   603 O    0.725
   633   1 H    0.782 --   571 O    0.742
   634   1 H    0.777 --   538 O    0.739
   635   1 H    0.796 --   505 O    0.754
   636   1 H    0.763 --   472 O    0.729
   637   1 H    0.780 --   443 O    0.740
   638   1 H    0.764 --   412 O    0.730
   639   1 H    0.765 --   381 O    0.731
   640   1 H    0.761 --   348 O    0.727
   641   1 H    0.782 --   255 O    0.743
   642   1 H    0.771 --   223 O    0.734
   643   1 H    0.759 --   190 O    0.724
   644   1 H    0.762 --   157 O    0.727
   645   1 H    0.760 --   135 O    0.725
   646   1 H    0.758 --    95 O    0.723
   647   1 H    0.761 --    65 O    0.727
   648   1 H    0.767 --    33 O    0.732
   649   1 H    0.767 --   286 O    0.730
 ---------------------------------------------------------------------------

Topologies differ in total number of bonds
Writing topology from bond orders to xtbtopo.mol

molecular dipole:
                 x           y           z       tot (Debye)
 q only:        6.661      13.244       3.062
   full:        8.135      12.490       4.270      39.410
molecular quadrupole (traceless):
                xx          xy          yy          xz          yz          zz
 q only:     -331.193    1117.982    1013.893     548.916     856.752    -682.700
  q+dip:     -269.673    1233.384     838.113     701.024     970.043    -568.440
   full:     -287.557    1233.467     862.977     702.810     989.252    -575.420


           -------------------------------------------------
          | TOTAL ENERGY            -1285.205258168839 Eh   |
          | GRADIENT NORM               0.642286082269 Eh/α |
          | HOMO-LUMO GAP               2.549573579784 eV   |
           -------------------------------------------------
########################################################################
[WARNING] Runtime exception occurred
-2- restart_readRestart: Dimension missmatch in restart file.
-1- restart_readRestart: Number of electron missmatch in restart file.
########################################################################

------------------------------------------------------------------------
 * finished run on 2023/03/09 at 13:52:19.204     
------------------------------------------------------------------------
 total:
 * wall-time:     0 d,  0 h,  0 min,  9.741 sec
 *  cpu-time:     0 d,  0 h,  1 min, 32.406 sec
 * ratio c/w:     9.487 speedup
 SCF:
 * wall-time:     0 d,  0 h,  0 min,  8.947 sec
 *  cpu-time:     0 d,  0 h,  1 min, 26.043 sec
 * ratio c/w:     9.616 speedup

