      -----------------------------------------------------------      
     |                   =====================                   |     
     |                           x T B                           |     
     |                   =====================                   |     
     |                         S. Grimme                         |     
     |          Mulliken Center for Theoretical Chemistry        |     
     |                    University of Bonn                     |     
      -----------------------------------------------------------      

   * xtb version 6.5.1 (579679a) compiled by 'ehlert@majestix' on 2022-07-11

   xtb is free software: you can redistribute it and/or modify it under
   the terms of the GNU Lesser General Public License as published by
   the Free Software Foundation, either version 3 of the License, or
   (at your option) any later version.
   
   xtb is distributed in the hope that it will be useful,
   but WITHOUT ANY WARRANTY; without even the implied warranty of
   MERCHANTABILITY or FITNESS FOR A PARTICULAR PURPOSE.  See the
   GNU Lesser General Public License for more details.
   
   Cite this work as:
   * C. Bannwarth, E. Caldeweyher, S. Ehlert, A. Hansen, P. Pracht,
     J. Seibert, S. Spicher, S. Grimme, WIREs Comput. Mol. Sci., 2020, 11,
     e01493. DOI: 10.1002/wcms.1493
   
   for GFN2-xTB:
   * C. Bannwarth, S. Ehlert and S. Grimme., J. Chem. Theory Comput., 2019,
     15, 1652-1671. DOI: 10.1021/acs.jctc.8b01176
   for GFN1-xTB:
   * S. Grimme, C. Bannwarth, P. Shushkov, J. Chem. Theory Comput., 2017,
     13, 1989-2009. DOI: 10.1021/acs.jctc.7b00118
   for GFN0-xTB:
   * P. Pracht, E. Caldeweyher, S. Ehlert, S. Grimme, ChemRxiv, 2019, preprint.
     DOI: 10.26434/chemrxiv.8326202.v1
   for GFN-FF:
   * S. Spicher and S. Grimme, Angew. Chem. Int. Ed., 2020, 59, 15665-15673.
     DOI: 10.1002/anie.202004239
   
   for ALPB and GBSA implicit solvation:
   * S. Ehlert, M. Stahn, S. Spicher, S. Grimme, J. Chem. Theory Comput.,
     2021, 17, 4250-4261. DOI: 10.1021/acs.jctc.1c00471
   
   for DFT-D4:
   * E. Caldeweyher, C. Bannwarth and S. Grimme, J. Chem. Phys., 2017,
     147, 034112. DOI: 10.1063/1.4993215
   * E. Caldeweyher, S. Ehlert, A. Hansen, H. Neugebauer, S. Spicher,
     C. Bannwarth and S. Grimme, J. Chem. Phys., 2019, 150, 154122.
     DOI: 10.1063/1.5090222
   * E. Caldeweyher, J.-M. Mewes, S. Ehlert and S. Grimme, Phys. Chem. Chem. Phys.
     2020, 22, 8499-8512. DOI: 10.1039/D0CP00502A
   
   for sTDA-xTB:
   * S. Grimme and C. Bannwarth, J. Chem. Phys., 2016, 145, 054103.
     DOI: 10.1063/1.4959605
   
   in the mass-spec context:
   * V. Asgeirsson, C. Bauer and S. Grimme, Chem. Sci., 2017, 8, 4879.
     DOI: 10.1039/c7sc00601b
   * J. Koopman and S. Grimme, ACS Omega 2019, 4, 12, 15120-15133.
     DOI: 10.1021/acsomega.9b02011
   
   for metadynamics refer to:
   * S. Grimme, J. Chem. Theory Comput., 2019, 155, 2847-2862
     DOI: 10.1021/acs.jctc.9b00143
   
   for SPH calculations refer to:
   * S. Spicher and S. Grimme, J. Chem. Theory Comput., 2021, 17, 1701-1714
     DOI: 10.1021/acs.jctc.0c01306
   
   with help from (in alphabetical order)
   P. Atkinson, C. Bannwarth, F. Bohle, G. Brandenburg, E. Caldeweyher
   M. Checinski, S. Dohm, S. Ehlert, S. Ehrlich, I. Gerasimov, C. Hölzer
   A. Katbashev, J. Koopman, C. Lavigne, S. Lehtola, F. März, M. Müller,
   F. Musil, H. Neugebauer, J. Pisarek, C. Plett, P. Pracht, F. Pultar,
   J. Seibert, P. Shushkov, S. Spicher, M. Stahn, M. Steiner, T. Strunk,
   J. Stückrath, T. Rose, and J. Unsleber
   
 * started run on 2023/03/09 at 13:52:09.464     

           -------------------------------------------------
          |                Calculation Setup                |
           -------------------------------------------------

          program call               : /N/u/schandy/BigRed3/bin/xtb-6.5.1/bin/xtb 2n5p.xyz --alpb water
          hostname                   : nid00065
          coordinate file            : 2n5p.xyz
          omp threads                :                    10

   ID    Z sym.   atoms
    1    8 O      1, 4, 6, 32-34, 37, 39, 44, 47, 64-66, 69, 71, 79, 97-99,
                  102, 104, 112, 130-132, 135, 137, 162-164, 167, 169, 177,
                  195-197, 200, 202, 207, 225-227, 230, 232, 237, 240,
                  257-259, 262, 264, 269, 287, 290, 292, 300, 319-321, 324,
                  326, 351-353, 356, 358, 366, 384-386, 389, 391, 396,
                  414-416, 419, 421, 426, 429, 446-448, 451, 453, 458,
                  476-478, 481, 483, 488, 506-508, 511, 513, 538-540, 543,
                  545, 550, 553
    2    6 C      2, 3, 5, 7, 8, 10, 12, 13, 16, 18, 35, 36, 38, 40, 41, 43,
                  46, 48-50, 67, 68, 70, 72, 73, 75, 77, 78, 81, 84, 100,
                  101, 103, 105, 106, 108, 110, 111, 114, 117, 133, 134, 136,
                  138, 139, 141, 143, 144, 147, 149, 165, 166, 168, 170, 171,
                  173, 175, 176, 179, 182, 198, 199, 201, 203, 204, 206, 209,
                  211, 212, 228, 229, 231, 233, 234, 236, 239, 241-243, 260,
                  261, 263, 265, 266, 268, 271, 273, 274, 288, 289, 291, 293,
                  294, 296, 298, 299, 302, 305, 322, 323, 325, 327, 328, 330,
                  332, 333, 336, 338, 354, 355, 357, 359, 360, 362, 364, 365,
                  368, 371, 387, 388, 390, 392, 393, 395, 398, 400, 401, 417,
                  418, 420, 422, 423, 425, 428, 430-432, 449, 450, 452, 454,
                  455, 457, 460, 462, 463, 479, 480, 482, 484, 485, 487, 490,
                  492, 493, 509, 510, 512, 514, 515, 517, 519, 520, 523, 525,
                  541, 542, 544, 546, 547, 549, 552, 554-556
    3    7 N      9, 11, 14, 15, 17, 42, 45, 74, 76, 80, 82, 83, 107, 109,
                  113, 115, 116, 140, 142, 145, 146, 148, 172, 174, 178, 180,
                  181, 205, 208, 210, 235, 238, 267, 270, 272, 295, 297, 301,
                  303, 304, 329, 331, 334, 335, 337, 361, 363, 367, 369, 370,
                  394, 397, 399, 424, 427, 456, 459, 461, 486, 489, 491, 516,
                  518, 521, 522, 524, 548, 551
    4    1 H      19-30, 51-62, 85-95, 118-128, 150-160, 183-193, 213-223,
                  244-255, 275-286, 306-317, 339-349, 372-382, 402-412,
                  433-444, 464-474, 494-504, 526-536, 557-585
    5   15 P      31, 63, 96, 129, 161, 194, 224, 256, 318, 350, 383, 413,
                  445, 475, 505, 537

molecular fragmentation (1/2 indicates fragments):
111111111111111111111111111111111111111111111111111111111111111111111111
111111111111111111111111111111111111111111111111111111111111111111111111
111111111111111111111111111111111111111111111111111111111111111111111111
111111111111111111111111111111111111111111111111111111111111111111111122
222222222222222222222222222222222222222222222222222222222222222222222222
222222222222222222222222222222222222222222222222222222222222222222222222
222222222222222222222222222222222222222222222222222222222222222222222222
222222222222222222222222222222222222222222222222222222222222222221111111
122222222
# atoms in fragment 1/2:   294   291
 fragment masses (1/2) :     2738.82     2698.80
CMA distance (Bohr)    :   4.381
constraining FC (au)   :  0.0500

           -------------------------------------------------
          |                 G F N 2 - x T B                 |
           -------------------------------------------------

        Reference                      10.1021/acs.jctc.8b01176
      * Hamiltonian:
        H0-scaling (s, p, d)           1.850000    2.230000    2.230000
        zeta-weighting                 0.500000
      * Dispersion:
        s8                             2.700000
        a1                             0.520000
        a2                             5.000000
        s9                             5.000000
      * Repulsion:
        kExp                           1.500000    1.000000
        rExp                           1.000000
      * Coulomb:
        alpha                          2.000000
        third order                    shell-resolved
        anisotropic                    true
        a3                             3.000000
        a5                             4.000000
        cn-shift                       1.200000
        cn-exp                         4.000000
        max-rad                        5.000000

      * Solvation model:               ALPB
        Solvent                        water
        Parameter file                 internal GFN2-xTB/ALPB
        Dielectric constant                8.0200E+01
        Reference state                gsolv [1 M gas/solution]
        Free energy shift                  1.0808E-03 Eh       6.7819E-01 kcal/mol
        Temperature                        2.9815E+02 K
        Density                            1.0000E+00 kg/L
        Solvent mass                       1.8000E+01 g/mol
        Interaction kernel             P16
        Born radius scaling (c1)           1.4744E+00
        Born radii integrator          GBOBC
        Born offset                        0.0000E+00 a0       0.0000E+00 AA
        H-bond correction              true
        Ion screening                  false
        Surface tension                    1.0000E-05 Eh       1.5569E+01 dyn/cm
        Grid points                               230 per atom

          ...................................................
          :                      SETUP                      :
          :.................................................:
          :  # basis functions                1770          :
          :  # atomic orbitals                1754          :
          :  # shells                          964          :
          :  # electrons                      1966          :
          :  max. iterations                   250          :
          :  Hamiltonian                  GFN2-xTB          :
          :  restarted?                      false          :
          :  GBSA solvation                   true          :
          :  PC potential                    false          :
          :  electronic temp.          300.0000000     K    :
          :  accuracy                    1.0000000          :
          :  -> integral cutoff          0.2500000E+02      :
          :  -> integral neglect         0.1000000E-07      :
          :  -> SCF convergence          0.1000000E-05 Eh   :
          :  -> wf. convergence          0.1000000E-03 e    :
          :  Broyden damping             0.4000000          :
          ...................................................

 iter      E             dE          RMSdq      gap      omega  full diag
   1  -1162.3759095 -0.116238E+04  0.588E+00    2.68       0.0  T
   2  -1165.0673892 -0.269148E+01  0.336E+00    2.18       1.0  T
   3  -1165.2331701 -0.165781E+00  0.143E+00    2.78       1.0  T
   4  -1165.4706716 -0.237501E+00  0.622E-01    2.40       1.0  T
   5  -1165.5515116 -0.808401E-01  0.300E-01    2.47       1.0  T
   6  -1165.5621069 -0.105953E-01  0.132E-01    2.45       1.0  T
   7  -1165.5648449 -0.273800E-02  0.661E-02    2.46       1.0  T
   8  -1165.5651290 -0.284098E-03  0.373E-02    2.46       1.0  T
   9  -1165.5653338 -0.204782E-03  0.159E-02    2.47       1.0  T
  10  -1165.5653809 -0.470448E-04  0.625E-03    2.47       1.0  T
  11  -1165.5653845 -0.360265E-05  0.343E-03    2.47       1.2  T
  12  -1165.5653867 -0.223909E-05  0.149E-03    2.47       2.8  T
  13  -1165.5653870 -0.295317E-06  0.876E-04    2.47       4.7  T
  14  -1165.5653871 -0.104080E-06  0.496E-04    2.47       8.3  T

   *** convergence criteria satisfied after 14 iterations ***

         #    Occupation            Energy/Eh            Energy/eV
      -------------------------------------------------------------
         1        2.0000           -0.7719134             -21.0048
       ...           ...                  ...                  ...
       977        2.0000           -0.3776113             -10.2753
       978        2.0000           -0.3771378             -10.2624
       979        2.0000           -0.3766258             -10.2485
       980        2.0000           -0.3745205             -10.1912
       981        2.0000           -0.3731580             -10.1541
       982        2.0000           -0.3705780             -10.0839
       983        2.0000           -0.3684067             -10.0249 (HOMO)
       984                         -0.2776156              -7.5543 (LUMO)
       985                         -0.2775526              -7.5526
       986                         -0.2753072              -7.4915
       987                         -0.2711610              -7.3787
       988                         -0.2708124              -7.3692
       ...                                ...                  ...
      1754                          1.3585865              36.9690
      -------------------------------------------------------------
                  HL-Gap            0.0907910 Eh            2.4705 eV
             Fermi-level           -0.3230111 Eh           -8.7896 eV

 SCC (total)                   0 d,  0 h,  0 min,  7.021 sec
 SCC setup                      ...        0 min,  0.046 sec (  0.660%)
 Dispersion                     ...        0 min,  0.140 sec (  2.001%)
 classical contributions        ...        0 min,  0.002 sec (  0.036%)
 integral evaluation            ...        0 min,  0.361 sec (  5.147%)
 iterations                     ...        0 min,  5.113 sec ( 72.826%)
 molecular gradient             ...        0 min,  1.308 sec ( 18.637%)
 printout                       ...        0 min,  0.049 sec (  0.694%)

         :::::::::::::::::::::::::::::::::::::::::::::::::::::
         ::                     SUMMARY                     ::
         :::::::::::::::::::::::::::::::::::::::::::::::::::::
         :: total energy           -1154.243527502927 Eh    ::
         :: total w/o Gsasa/hb     -1154.059787716282 Eh    ::
         :: gradient norm              0.586004536373 Eh/a0 ::
         :: HOMO-LUMO gap              2.470549553348 eV    ::
         ::.................................................::
         :: SCC energy             -1165.565387111567 Eh    ::
         :: -> isotropic ES            4.193568847527 Eh    ::
         :: -> anisotropic ES         -0.262914939246 Eh    ::
         :: -> anisotropic XC          0.209203108425 Eh    ::
         :: -> dispersion             -1.002940843083 Eh    ::
         :: -> Gsolv                  -0.875971609685 Eh    ::
         ::    -> Gelec               -0.692231823039 Eh    ::
         ::    -> Gsasa                0.047776942409 Eh    ::
         ::    -> Ghb                 -0.232597488753 Eh    ::
         ::    -> Gshift               0.001080759698 Eh    ::
         :: repulsion energy          11.235586918330 Eh    ::
         :: add. restraining           0.000000000000 Eh    ::
         :: total charge              -0.000000000000 e     ::
         :::::::::::::::::::::::::::::::::::::::::::::::::::::

           -------------------------------------------------
          |                Property Printout                |
           -------------------------------------------------

    * Orbital Energies and Occupations

         #    Occupation            Energy/Eh            Energy/eV
      -------------------------------------------------------------
         1        2.0000           -0.7719134             -21.0048
       ...           ...                  ...                  ...
       971        2.0000           -0.3860726             -10.5056
       972        2.0000           -0.3848890             -10.4734
       973        2.0000           -0.3846089             -10.4657
       974        2.0000           -0.3822537             -10.4017
       975        2.0000           -0.3801621             -10.3447
       976        2.0000           -0.3799686             -10.3395
       977        2.0000           -0.3776113             -10.2753
       978        2.0000           -0.3771378             -10.2624
       979        2.0000           -0.3766258             -10.2485
       980        2.0000           -0.3745205             -10.1912
       981        2.0000           -0.3731580             -10.1541
       982        2.0000           -0.3705780             -10.0839
       983        2.0000           -0.3684067             -10.0249 (HOMO)
       984                         -0.2776156              -7.5543 (LUMO)
       985                         -0.2775526              -7.5526
       986                         -0.2753072              -7.4915
       987                         -0.2711610              -7.3787
       988                         -0.2708124              -7.3692
       989                         -0.2699000              -7.3444
       990                         -0.2695194              -7.3340
       991                         -0.2688108              -7.3147
       992                         -0.2679553              -7.2914
       993                         -0.2600185              -7.0755
       994                         -0.2561875              -6.9712
       ...                                ...                  ...
      1754                          1.3585865              36.9690
      -------------------------------------------------------------
                  HL-Gap            0.0907910 Eh            2.4705 eV
             Fermi-level           -0.3230111 Eh           -8.7896 eV

 * generalized Born model for continuum solvation

     #   Z     Born rad/Å   SASA/Å²    H-bond
     1   8 O        2.033     6.810    -0.001
     2   6 C        2.329     0.663    -0.000
     3   6 C        2.513     0.240    -0.000
     4   8 O        2.336    11.193    -0.001
     5   6 C        2.595     0.323    -0.000
     6   8 O        2.344     4.084    -0.000
     7   6 C        2.601     0.068    -0.000
     8   6 C        2.697     0.492    -0.000
     9   7 N        2.739     0.852    -0.000
    10   6 C        2.599     6.658    -0.001
    11   7 N        2.388    16.798    -0.001
    12   6 C        2.959     3.514    -0.000
    13   6 C        2.747     3.625    -0.000
    14   7 N        2.236     3.572    -0.000
    15   7 N        2.542     1.790    -0.000
    16   6 C        2.657     5.605    -0.001
    17   7 N        2.492     5.383    -0.000
    18   6 C        3.053     3.373    -0.000
    19   1 H        1.825    18.691    -0.031
    20   1 H        1.827    19.569    -0.033
    21   1 H        1.907    17.934    -0.030
    22   1 H        1.956    11.116    -0.019
    23   1 H        2.001     5.013    -0.008
    24   1 H        2.037     0.002    -0.000
    25   1 H        2.038     4.017    -0.007
    26   1 H        1.926     9.844    -0.017
    27   1 H        1.876    21.614    -0.036
    28   1 H        1.942     1.793    -0.003
    29   1 H        2.002     7.032    -0.012
    30   1 H        1.716    22.402    -0.038
    31  15 P        2.768     8.728    -0.002
    32   8 O        2.066    16.675    -0.002
    33   8 O        2.091    22.877    -0.003
    34   8 O        2.316     0.390    -0.000
    35   6 C        2.451     0.317    -0.000
    36   6 C        2.557     0.146    -0.000
    37   8 O        2.414     3.776    -0.000
    38   6 C        2.612     0.312    -0.000
    39   8 O        2.349     4.216    -0.000
    40   6 C        2.591     0.650    -0.000
    41   6 C        2.733     0.049    -0.000
    42   7 N        2.698     0.030    -0.000
    43   6 C        2.713     0.000    -0.000
    44   8 O        2.206     3.861    -0.000
    45   7 N        2.523     0.000     0.000
    46   6 C        2.678     1.359    -0.000
    47   8 O        2.182    10.775    -0.001
    48   6 C        2.740     1.924    -0.000
    49   6 C        2.425     2.618    -0.000
    50   6 C        2.768     2.506    -0.000
    51   1 H        1.902     9.060    -0.015
    52   1 H        1.888    10.171    -0.017
    53   1 H        1.932    16.889    -0.028
    54   1 H        1.967    10.364    -0.017
    55   1 H        1.999     9.949    -0.017
    56   1 H        1.995     2.819    -0.005
    57   1 H        2.036     3.656    -0.006
    58   1 H        2.249     0.000     0.000
    59   1 H        1.866    21.168    -0.036
    60   1 H        1.921     7.412    -0.012
    61   1 H        1.897     9.619    -0.016
    62   1 H        2.058     1.536    -0.003
    63  15 P        2.769     8.198    -0.002
    64   8 O        2.072    16.434    -0.002
    65   8 O        2.087    25.110    -0.003
    66   8 O        2.311     0.352    -0.000
    67   6 C        2.448     0.284    -0.000
    68   6 C        2.562     0.137    -0.000
    69   8 O        2.405     5.265    -0.001
    70   6 C        2.624     0.158    -0.000
    71   8 O        2.362     2.703    -0.000
    72   6 C        2.602     0.444    -0.000
    73   6 C        2.752     0.069    -0.000
    74   7 N        2.840     0.000    -0.000
    75   6 C        2.704     1.948    -0.000
    76   7 N        2.500    10.953    -0.001
    77   6 C        3.102     0.004    -0.000
    78   6 C        2.795     0.001    -0.000
    79   8 O        2.239     5.288    -0.001
    80   7 N        2.724     0.000     0.000
    81   6 C        2.872     0.006    -0.000
    82   7 N        2.324     0.480    -0.000
    83   7 N        2.640     3.686    -0.000
    84   6 C        3.224     0.011    -0.000
    85   1 H        1.890    11.604    -0.019
    86   1 H        1.892     9.931    -0.017
    87   1 H        1.941    16.440    -0.028
    88   1 H        1.978     9.464    -0.016
    89   1 H        2.001     9.001    -0.015
    90   1 H        2.020     1.278    -0.002
    91   1 H        2.073     3.975    -0.007
    92   1 H        1.976     8.944    -0.015
    93   1 H        2.346     0.000     0.000
    94   1 H        2.016     0.751    -0.001
    95   1 H        1.926    20.796    -0.035
    96  15 P        2.775     8.644    -0.002
    97   8 O        2.074    16.322    -0.002
    98   8 O        2.090    24.811    -0.003
    99   8 O        2.330     0.530    -0.000
   100   6 C        2.461     0.328    -0.000
   101   6 C        2.605     0.095    -0.000
   102   8 O        2.443     3.880    -0.000
   103   6 C        2.651     0.154    -0.000
   104   8 O        2.440     0.068    -0.000
   105   6 C        2.608     0.851    -0.000
   106   6 C        2.810     0.060    -0.000
   107   7 N        2.892     0.002    -0.000
   108   6 C        2.729     3.146    -0.000
   109   7 N        2.497    12.633    -0.001
   110   6 C        3.124     0.123    -0.000
   111   6 C        2.783     0.130    -0.000
   112   8 O        2.209    11.758    -0.001
   113   7 N        2.711     0.000     0.000
   114   6 C        2.918     0.000     0.000
   115   7 N        2.355     0.065    -0.000
   116   7 N        2.723     2.051    -0.000
   117   6 C        3.304     0.000    -0.000
   118   1 H        1.901    12.002    -0.020
   119   1 H        1.889    10.314    -0.017
   120   1 H        1.978     8.401    -0.014
   121   1 H        1.980    11.384    -0.019
   122   1 H        2.008     7.415    -0.012
   123   1 H        1.992    10.280    -0.017
   124   1 H        2.139     1.596    -0.003
   125   1 H        1.994     7.819    -0.013
   126   1 H        2.340     0.000     0.000
   127   1 H        2.041     0.291    -0.000
   128   1 H        1.959    12.915    -0.022
   129  15 P        2.786     5.978    -0.001
   130   8 O        2.101     8.008    -0.001
   131   8 O        2.075    30.131    -0.003
   132   8 O        2.313     1.825    -0.000
   133   6 C        2.464     0.413    -0.000
   134   6 C        2.562     0.286    -0.000
   135   8 O        2.405     9.038    -0.001
   136   6 C        2.629     0.251    -0.000
   137   8 O        2.342     4.630    -0.001
   138   6 C        2.628     0.255    -0.000
   139   6 C        2.753     0.083    -0.000
   140   7 N        2.881     0.062    -0.000
   141   6 C        2.756     0.796    -0.000
   142   7 N        2.562     4.425    -0.000
   143   6 C        3.296     0.000     0.000
   144   6 C        3.019     0.000     0.000
   145   7 N        2.375     0.074    -0.000
   146   7 N        2.692     0.000     0.000
   147   6 C        2.749     0.384    -0.000
   148   7 N        2.550     6.341    -0.000
   149   6 C        3.271     0.100    -0.000
   150   1 H        1.931     7.315    -0.012
   151   1 H        1.875    13.958    -0.023
   152   1 H        1.928    17.422    -0.029
   153   1 H        1.999     8.059    -0.014
   154   1 H        2.033     5.987    -0.010
   155   1 H        2.051     0.349    -0.001
   156   1 H        2.054     5.394    -0.009
   157   1 H        2.020     4.508    -0.008
   158   1 H        1.975     9.187    -0.015
   159   1 H        2.030     0.667    -0.001
   160   1 H        2.019     8.925    -0.015
   161  15 P        2.768     6.628    -0.001
   162   8 O        2.070    11.762    -0.001
   163   8 O        2.083    25.861    -0.003
   164   8 O        2.316     1.862    -0.000
   165   6 C        2.457     0.364    -0.000
   166   6 C        2.581     0.119    -0.000
   167   8 O        2.445     3.080    -0.000
   168   6 C        2.639     0.026    -0.000
   169   8 O        2.396     0.471    -0.000
   170   6 C        2.614     0.512    -0.000
   171   6 C        2.792     0.095    -0.000
   172   7 N        2.906     0.000     0.000
   173   6 C        2.731     1.639    -0.000
   174   7 N        2.514    10.689    -0.001
   175   6 C        3.155     0.026    -0.000
   176   6 C        2.801     0.057    -0.000
   177   8 O        2.228     9.218    -0.001
   178   7 N        2.699     0.000     0.000
   179   6 C        2.870     0.000    -0.000
   180   7 N        2.320     0.170    -0.000
   181   7 N        2.692     2.175    -0.000
   182   6 C        3.317     0.000    -0.000
   183   1 H        1.915    11.331    -0.019
   184   1 H        1.879    15.563    -0.026
   185   1 H        1.953    14.992    -0.025
   186   1 H        1.982     9.446    -0.016
   187   1 H        2.005     8.894    -0.015
   188   1 H        2.027     1.770    -0.003
   189   1 H        2.114     3.001    -0.005
   190   1 H        1.985    10.147    -0.017
   191   1 H        2.337     0.000    -0.000
   192   1 H        2.007     0.674    -0.001
   193   1 H        1.936    11.922    -0.020
   194  15 P        2.781     6.175    -0.001
   195   8 O        2.075    12.246    -0.001
   196   8 O        2.098    23.481    -0.003
   197   8 O        2.315     1.815    -0.000
   198   6 C        2.455     0.347    -0.000
   199   6 C        2.572     0.085    -0.000
   200   8 O        2.416     4.472    -0.000
   201   6 C        2.650     0.001    -0.000
   202   8 O        2.348     4.078    -0.000
   203   6 C        2.630     0.008    -0.000
   204   6 C        2.721     0.030    -0.000
   205   7 N        2.753     0.000     0.000
   206   6 C        2.782     0.001    -0.000
   207   8 O        2.242     5.083    -0.001
   208   7 N        2.633     0.000    -0.000
   209   6 C        2.818     0.003    -0.000
   210   7 N        2.311     0.387    -0.000
   211   6 C        2.734     0.427    -0.000
   212   6 C        2.753     0.007    -0.000
   213   1 H        1.909    11.943    -0.020
   214   1 H        1.882    15.399    -0.026
   215   1 H        1.949    16.577    -0.028
   216   1 H        2.034     2.869    -0.005
   217   1 H        2.102     0.001    -0.000
   218   1 H        2.019     2.875    -0.005
   219   1 H        1.998     9.132    -0.015
   220   1 H        1.995     1.269    -0.002
   221   1 H        1.927    15.656    -0.026
   222   1 H        2.009     9.649    -0.016
   223   1 H        2.062     0.472    -0.001
   224  15 P        2.776     6.584    -0.001
   225   8 O        2.071    11.861    -0.001
   226   8 O        2.090    22.775    -0.003
   227   8 O        2.348     0.290    -0.000
   228   6 C        2.465     0.423    -0.000
   229   6 C        2.572     0.143    -0.000
   230   8 O        2.426     5.015    -0.001
   231   6 C        2.639     0.017    -0.000
   232   8 O        2.375     2.379    -0.000
   233   6 C        2.614     0.416    -0.000
   234   6 C        2.744     0.079    -0.000
   235   7 N        2.710     0.005    -0.000
   236   6 C        2.685     0.267    -0.000
   237   8 O        2.169     9.410    -0.001
   238   7 N        2.509     0.000    -0.000
   239   6 C        2.718     0.000     0.000
   240   8 O        2.236     3.581    -0.000
   241   6 C        2.786     0.000    -0.000
   242   6 C        2.450     2.017    -0.000
   243   6 C        2.803     0.000    -0.000
   244   1 H        1.905    11.145    -0.019
   245   1 H        1.891    12.826    -0.022
   246   1 H        1.939    16.745    -0.028
   247   1 H        1.989     4.940    -0.008
   248   1 H        2.021     5.177    -0.009
   249   1 H        2.037     0.150    -0.000
   250   1 H        2.027     5.556    -0.009
   251   1 H        2.224     0.001    -0.000
   252   1 H        1.934     5.448    -0.009
   253   1 H        1.900     9.890    -0.017
   254   1 H        1.902     9.452    -0.016
   255   1 H        2.071     0.995    -0.002
   256  15 P        2.759     9.322    -0.002
   257   8 O        2.071    26.839    -0.003
   258   8 O        2.075    16.485    -0.002
   259   8 O        2.292     2.104    -0.000
   260   6 C        2.434     0.334    -0.000
   261   6 C        2.527     0.177    -0.000
   262   8 O        2.388     3.041    -0.000
   263   6 C        2.474     0.516    -0.000
   264   8 O        2.051    14.914    -0.002
   265   6 C        2.517     0.745    -0.000
   266   6 C        2.669     0.130    -0.000
   267   7 N        2.629     0.471    -0.000
   268   6 C        2.667     3.480    -0.000
   269   8 O        2.177     7.949    -0.001
   270   7 N        2.521     1.920    -0.000
   271   6 C        2.694     3.678    -0.000
   272   7 N        2.241     3.563    -0.000
   273   6 C        2.609     4.300    -0.000
   274   6 C        2.641     3.280    -0.000
   275   1 H        1.905    10.765    -0.018
   276   1 H        1.865    16.710    -0.028
   277   1 H        1.914    17.063    -0.029
   278   1 H        1.906    15.372    -0.026
   279   1 H        1.736    21.338    -0.036
   280   1 H        1.978     6.762    -0.011
   281   1 H        1.911    15.413    -0.026
   282   1 H        1.993    10.559    -0.018
   283   1 H        1.939     3.904    -0.007
   284   1 H        1.878    16.509    -0.028
   285   1 H        1.935    18.295    -0.031
   286   1 H        1.980     9.920    -0.017
   287   8 O        2.034    11.968    -0.001
   288   6 C        2.329     1.421    -0.000
   289   6 C        2.518     0.178    -0.000
   290   8 O        2.355    10.798    -0.001
   291   6 C        2.591     0.279    -0.000
   292   8 O        2.342     3.256    -0.000
   293   6 C        2.586     0.330    -0.000
   294   6 C        2.704     0.069    -0.000
   295   7 N        2.743     0.187    -0.000
   296   6 C        2.612     6.447    -0.001
   297   7 N        2.393    18.211    -0.001
   298   6 C        2.910     3.145    -0.000
   299   6 C        2.639     4.176    -0.000
   300   8 O        2.155    13.704    -0.002
   301   7 N        2.537     1.788    -0.000
   302   6 C        2.716     4.023    -0.000
   303   7 N        2.242     3.928    -0.000
   304   7 N        2.548     6.413    -0.000
   305   6 C        3.054     2.900    -0.000
   306   1 H        1.824    21.137    -0.036
   307   1 H        1.831    18.386    -0.031
   308   1 H        1.913    17.291    -0.029
   309   1 H        1.954    10.094    -0.017
   310   1 H        1.988     8.410    -0.014
   311   1 H        2.032     1.439    -0.002
   312   1 H        2.040     4.465    -0.007
   313   1 H        1.934     9.922    -0.017
   314   1 H        2.206     1.082    -0.002
   315   1 H        1.931     4.671    -0.008
   316   1 H        1.888    21.092    -0.035
   317   1 H        1.754    13.605    -0.023
   318  15 P        2.771     5.230    -0.001
   319   8 O        2.071    10.991    -0.001
   320   8 O        2.092    22.876    -0.003
   321   8 O        2.320     0.349    -0.000
   322   6 C        2.451     0.317    -0.000
   323   6 C        2.555     0.161    -0.000
   324   8 O        2.391     9.420    -0.001
   325   6 C        2.611     0.266    -0.000
   326   8 O        2.343     4.019    -0.000
   327   6 C        2.619     0.345    -0.000
   328   6 C        2.738     0.078    -0.000
   329   7 N        2.851     0.034    -0.000
   330   6 C        2.736     0.969    -0.000
   331   7 N        2.529     6.697    -0.000
   332   6 C        3.217     0.000     0.000
   333   6 C        2.951     0.000     0.000
   334   7 N        2.357     0.062    -0.000
   335   7 N        2.636     0.000    -0.000
   336   6 C        2.689     0.678    -0.000
   337   7 N        2.503     7.690    -0.001
   338   6 C        3.188     0.538    -0.000
   339   1 H        1.891    12.906    -0.022
   340   1 H        1.889    13.055    -0.022
   341   1 H        1.925    17.339    -0.029
   342   1 H        1.971    10.316    -0.017
   343   1 H        2.028     7.003    -0.012
   344   1 H        2.022     1.271    -0.002
   345   1 H        2.037     4.289    -0.007
   346   1 H        2.008     5.279    -0.009
   347   1 H        1.968     8.175    -0.014
   348   1 H        2.028     0.249    -0.000
   349   1 H        1.985    12.580    -0.021
   350  15 P        2.761     9.380    -0.002
   351   8 O        2.068    16.466    -0.002
   352   8 O        2.078    26.442    -0.003
   353   8 O        2.302     2.180    -0.000
   354   6 C        2.441     0.322    -0.000
   355   6 C        2.567     0.081    -0.000
   356   8 O        2.433     2.015    -0.000
   357   6 C        2.614     0.109    -0.000
   358   8 O        2.356     3.664    -0.000
   359   6 C        2.611     0.269    -0.000
   360   6 C        2.764     0.098    -0.000
   361   7 N        2.876     0.000    -0.000
   362   6 C        2.712     1.679    -0.000
   363   7 N        2.496    10.800    -0.001
   364   6 C        3.123     0.010    -0.000
   365   6 C        2.780     0.010    -0.000
   366   8 O        2.220     9.129    -0.001
   367   7 N        2.678     0.000     0.000
   368   6 C        2.851     0.000    -0.000
   369   7 N        2.313     0.101    -0.000
   370   7 N        2.672     1.646    -0.000
   371   6 C        3.280     0.000    -0.000
   372   1 H        1.902    10.901    -0.018
   373   1 H        1.875    13.009    -0.022
   374   1 H        1.952    14.587    -0.025
   375   1 H        1.966    10.862    -0.018
   376   1 H        2.002     9.314    -0.016
   377   1 H        2.040     1.103    -0.002
   378   1 H        2.083     4.317    -0.007
   379   1 H        1.974    10.186    -0.017
   380   1 H        2.315     0.000    -0.000
   381   1 H        2.003     0.785    -0.001
   382   1 H        1.931    11.535    -0.019
   383  15 P        2.776     8.873    -0.002
   384   8 O        2.076    16.242    -0.002
   385   8 O        2.090    25.375    -0.003
   386   8 O        2.320     1.106    -0.000
   387   6 C        2.459     0.326    -0.000
   388   6 C        2.578     0.104    -0.000
   389   8 O        2.433     3.116    -0.000
   390   6 C        2.664     0.010    -0.000
   391   8 O        2.350     4.996    -0.001
   392   6 C        2.639    -0.002     0.000
   393   6 C        2.742     0.028    -0.000
   394   7 N        2.794     0.000     0.000
   395   6 C        2.808     0.000     0.000
   396   8 O        2.259     4.912    -0.001
   397   7 N        2.646     0.000     0.000
   398   6 C        2.811     0.056    -0.000
   399   7 N        2.299     0.803    -0.000
   400   6 C        2.732     0.481    -0.000
   401   6 C        2.773     0.088    -0.000
   402   1 H        1.905    11.445    -0.019
   403   1 H        1.894     9.708    -0.016
   404   1 H        1.952    16.673    -0.028
   405   1 H        2.057     2.459    -0.004
   406   1 H        2.108     0.027    -0.000
   407   1 H        2.001     5.500    -0.009
   408   1 H        2.005     8.308    -0.014
   409   1 H        1.997     0.821    -0.001
   410   1 H        1.914    17.845    -0.030
   411   1 H        2.001    10.796    -0.018
   412   1 H        2.071     1.113    -0.002
   413  15 P        2.788     8.809    -0.002
   414   8 O        2.075    16.394    -0.002
   415   8 O        2.103    19.208    -0.002
   416   8 O        2.351     0.149    -0.000
   417   6 C        2.465     0.335    -0.000
   418   6 C        2.561     0.166    -0.000
   419   8 O        2.385     8.676    -0.001
   420   6 C        2.621     0.164    -0.000
   421   8 O        2.337     4.522    -0.001
   422   6 C        2.633     0.104    -0.000
   423   6 C        2.735     0.087    -0.000
   424   7 N        2.717     0.102    -0.000
   425   6 C        2.715     0.466    -0.000
   426   8 O        2.191     9.677    -0.001
   427   7 N        2.531     0.000     0.000
   428   6 C        2.739     0.000     0.000
   429   8 O        2.258     2.674    -0.000
   430   6 C        2.781     0.007    -0.000
   431   6 C        2.450     2.396    -0.000
   432   6 C        2.798     0.301    -0.000
   433   1 H        1.900    10.922    -0.018
   434   1 H        1.899     9.511    -0.016
   435   1 H        1.931    16.930    -0.028
   436   1 H        1.986     8.401    -0.014
   437   1 H        2.031     6.128    -0.010
   438   1 H        2.072     0.115    -0.000
   439   1 H        2.037     3.527    -0.006
   440   1 H        2.211     0.000     0.000
   441   1 H        1.888    14.147    -0.024
   442   1 H        1.904     7.934    -0.013
   443   1 H        1.947     5.158    -0.009
   444   1 H        2.081     1.264    -0.002
   445  15 P        2.768     9.243    -0.002
   446   8 O        2.067    16.446    -0.002
   447   8 O        2.088    24.762    -0.003
   448   8 O        2.309     2.229    -0.000
   449   6 C        2.451     0.323    -0.000
   450   6 C        2.570     0.062    -0.000
   451   8 O        2.450     0.939    -0.000
   452   6 C        2.625     0.029    -0.000
   453   8 O        2.358     3.513    -0.000
   454   6 C        2.616     0.131    -0.000
   455   6 C        2.741     0.017    -0.000
   456   7 N        2.740     0.000    -0.000
   457   6 C        2.771     0.000    -0.000
   458   8 O        2.238     4.506    -0.001
   459   7 N        2.630     0.000     0.000
   460   6 C        2.795     0.003    -0.000
   461   7 N        2.293     0.290    -0.000
   462   6 C        2.694     0.423    -0.000
   463   6 C        2.732     0.431    -0.000
   464   1 H        1.912    10.724    -0.018
   465   1 H        1.881    11.966    -0.020
   466   1 H        1.950    15.630    -0.026
   467   1 H        1.987     8.265    -0.014
   468   1 H        2.023     5.591    -0.009
   469   1 H        2.046     0.001    -0.000
   470   1 H        2.017     6.978    -0.012
   471   1 H        1.989     0.763    -0.001
   472   1 H        1.910    15.473    -0.026
   473   1 H        1.974    14.747    -0.025
   474   1 H        2.028     5.254    -0.009
   475  15 P        2.771     7.518    -0.002
   476   8 O        2.074    14.953    -0.002
   477   8 O        2.085    25.403    -0.003
   478   8 O        2.319     0.485    -0.000
   479   6 C        2.455     0.315    -0.000
   480   6 C        2.561     0.160    -0.000
   481   8 O        2.413     5.520    -0.001
   482   6 C        2.618     0.212    -0.000
   483   8 O        2.357     3.692    -0.000
   484   6 C        2.590     0.470    -0.000
   485   6 C        2.734     0.009    -0.000
   486   7 N        2.700     0.005    -0.000
   487   6 C        2.756     0.055    -0.000
   488   8 O        2.236     4.898    -0.001
   489   7 N        2.627     0.000     0.000
   490   6 C        2.804     0.000    -0.000
   491   7 N        2.321     0.113    -0.000
   492   6 C        2.683     0.883    -0.000
   493   6 C        2.698     0.921    -0.000
   494   1 H        1.902    11.675    -0.020
   495   1 H        1.890    11.173    -0.019
   496   1 H        1.936    16.674    -0.028
   497   1 H        1.970    10.067    -0.017
   498   1 H        1.997     8.400    -0.014
   499   1 H        2.000     2.740    -0.005
   500   1 H        2.050     1.581    -0.003
   501   1 H        2.014     0.742    -0.001
   502   1 H        1.929    12.666    -0.021
   503   1 H        1.972    14.240    -0.024
   504   1 H        2.004     7.604    -0.013
   505  15 P        2.766     6.853    -0.001
   506   8 O        2.068    12.159    -0.001
   507   8 O        2.083    25.302    -0.003
   508   8 O        2.323     0.606    -0.000
   509   6 C        2.457     0.437    -0.000
   510   6 C        2.591     0.085    -0.000
   511   8 O        2.438     1.905    -0.000
   512   6 C        2.622     0.061    -0.000
   513   8 O        2.356     4.804    -0.001
   514   6 C        2.619     0.270    -0.000
   515   6 C        2.781     0.055    -0.000
   516   7 N        2.875     0.000     0.000
   517   6 C        2.727     0.378    -0.000
   518   7 N        2.502     8.293    -0.001
   519   6 C        3.193     0.000     0.000
   520   6 C        2.894     0.000     0.000
   521   7 N        2.300     0.172    -0.000
   522   7 N        2.656     0.000     0.000
   523   6 C        2.786     0.028    -0.000
   524   7 N        2.582     1.513    -0.000
   525   6 C        3.258     0.000    -0.000
   526   1 H        1.908    10.330    -0.017
   527   1 H        1.885    14.846    -0.025
   528   1 H        1.975    10.523    -0.018
   529   1 H        1.968    11.791    -0.020
   530   1 H        2.007     7.237    -0.012
   531   1 H        2.039     0.210    -0.000
   532   1 H        2.117     1.128    -0.002
   533   1 H        1.985     8.629    -0.014
   534   1 H        1.920    12.884    -0.022
   535   1 H        1.974     1.805    -0.003
   536   1 H        2.099     3.332    -0.006
   537  15 P        2.774     6.771    -0.001
   538   8 O        2.069    11.606    -0.001
   539   8 O        2.087    24.180    -0.003
   540   8 O        2.341     0.202    -0.000
   541   6 C        2.468     0.404    -0.000
   542   6 C        2.555     0.194    -0.000
   543   8 O        2.461     1.075    -0.000
   544   6 C        2.492     0.465    -0.000
   545   8 O        2.063    13.863    -0.002
   546   6 C        2.515     1.233    -0.000
   547   6 C        2.713     0.007    -0.000
   548   7 N        2.672     0.388    -0.000
   549   6 C        2.666     3.994    -0.000
   550   8 O        2.162    11.376    -0.001
   551   7 N        2.481     1.610    -0.000
   552   6 C        2.652     3.565    -0.000
   553   8 O        2.161    13.290    -0.001
   554   6 C        2.722     1.859    -0.000
   555   6 C        2.401     2.765    -0.000
   556   6 C        2.744     3.032    -0.000
   557   1 H        1.922     7.062    -0.012
   558   1 H        1.892    13.345    -0.022
   559   1 H        1.928    18.036    -0.030
   560   1 H        1.914    14.231    -0.024
   561   1 H        1.730    23.181    -0.039
   562   1 H        1.968     9.822    -0.016
   563   1 H        1.906    17.624    -0.030
   564   1 H        2.024     7.529    -0.013
   565   1 H        2.209     0.679    -0.001
   566   1 H        1.874    13.437    -0.023
   567   1 H        1.853    20.949    -0.035
   568   1 H        1.890    11.016    -0.019
   569   1 H        2.036     2.201    -0.004
   570   1 H        1.788    16.108    -0.027
   571   1 H        1.754    26.686    -0.045
   572   1 H        1.761    24.923    -0.042
   573   1 H        1.752    26.789    -0.045
   574   1 H        1.777    19.345    -0.032
   575   1 H        1.779    17.390    -0.029
   576   1 H        1.782    16.417    -0.028
   577   1 H        1.772    17.980    -0.030
   578   1 H        1.752    26.821    -0.045
   579   1 H        1.751    26.647    -0.045
   580   1 H        1.766    20.540    -0.034
   581   1 H        1.771    18.764    -0.032
   582   1 H        1.780    16.566    -0.028
   583   1 H        1.783    17.160    -0.029
   584   1 H        1.778    16.843    -0.028
   585   1 H        1.752    26.827    -0.045

 total SASA / Å² :     3547.804

     #   Z          covCN         q      C6AA      α(0)
     1   8 O        1.654    -0.513    23.167     6.497
     2   6 C        3.672     0.058    19.841     6.384
     3   6 C        3.784     0.093    19.067     6.220
     4   8 O        1.699    -0.329    19.512     5.964
     5   6 C        3.941     0.116    18.621     6.132
     6   8 O        1.657    -0.346    19.838     6.013
     7   6 C        3.824    -0.086    22.112     6.691
     8   6 C        3.722     0.174    17.916     6.045
     9   7 N        2.831    -0.067    22.535     7.051
    10   6 C        3.152     0.099    25.542     8.266
    11   7 N        1.867    -0.290    28.357     7.893
    12   6 C        3.213     0.007    27.211     8.488
    13   6 C        2.907     0.175    24.243     8.074
    14   7 N        2.672    -0.247    26.440     7.637
    15   7 N        1.869    -0.336    29.575     8.061
    16   6 C        2.930     0.145    24.845     8.174
    17   7 N        1.827    -0.350    29.944     8.109
    18   6 C        3.146     0.132    24.876     8.160
    19   1 H        0.925     0.069     2.096     2.264
    20   1 H        0.924     0.055     2.260     2.351
    21   1 H        0.924     0.084     1.940     2.178
    22   1 H        0.924     0.071     2.073     2.252
    23   1 H        0.924     0.090     1.875     2.141
    24   1 H        0.925     0.064     2.157     2.296
    25   1 H        0.925     0.065     2.142     2.289
    26   1 H        0.926     0.089     1.886     2.148
    27   1 H        0.860     0.257     0.857     1.450
    28   1 H        0.860     0.243     0.910     1.494
    29   1 H        0.926     0.021     2.714     2.576
    30   1 H        0.805     0.374     0.535     1.149
    31  15 P        3.740     0.758   130.732    20.539
    32   8 O        1.614    -0.396    20.797     6.155
    33   8 O        0.808    -0.587    25.825     6.812
    34   8 O        1.656    -0.355    20.003     6.038
    35   6 C        3.895     0.057    19.579     6.290
    36   6 C        3.793     0.092    19.073     6.219
    37   8 O        1.700    -0.321    19.369     5.942
    38   6 C        3.931     0.113    18.678     6.142
    39   8 O        1.656    -0.340    19.718     5.994
    40   6 C        3.825    -0.086    22.114     6.692
    41   6 C        3.743     0.176    17.852     6.028
    42   7 N        2.738    -0.066    22.519     7.048
    43   6 C        2.700     0.327    21.446     7.580
    44   8 O        0.858    -0.508    23.953     6.562
    45   7 N        2.697    -0.183    24.956     7.419
    46   6 C        2.761     0.277    22.318     7.736
    47   8 O        0.859    -0.468    23.087     6.442
    48   6 C        2.951    -0.035    28.873     8.813
    49   6 C        3.755    -0.126    22.965     6.833
    50   6 C        2.850     0.028    27.368     8.574
    51   1 H        0.924     0.094     1.844     2.124
    52   1 H        0.924     0.081     1.964     2.192
    53   1 H        0.924     0.104     1.752     2.070
    54   1 H        0.924     0.078     2.003     2.213
    55   1 H        0.925     0.089     1.888     2.149
    56   1 H        0.925     0.065     2.146     2.291
    57   1 H        0.925     0.065     2.139     2.287
    58   1 H        0.860     0.240     0.921     1.503
    59   1 H        0.924     0.092     1.862     2.134
    60   1 H        0.925     0.073     2.052     2.240
    61   1 H        0.925     0.072     2.062     2.246
    62   1 H        0.926     0.103     1.760     2.074
    63  15 P        3.714     0.758   130.731    20.539
    64   8 O        1.614    -0.391    20.699     6.141
    65   8 O        0.808    -0.589    25.874     6.819
    66   8 O        1.656    -0.361    20.103     6.053
    67   6 C        3.885     0.053    19.646     6.302
    68   6 C        3.795     0.094    19.042     6.214
    69   8 O        1.700    -0.330    19.531     5.967
    70   6 C        3.926     0.113    18.678     6.142
    71   8 O        1.657    -0.341    19.746     5.999
    72   6 C        3.821    -0.082    22.047     6.682
    73   6 C        3.735     0.175    17.879     6.035
    74   7 N        2.819    -0.071    22.612     7.062
    75   6 C        3.146     0.100    25.534     8.267
    76   7 N        1.872    -0.299    28.607     7.928
    77   6 C        3.195    -0.014    27.821     8.599
    78   6 C        2.773     0.260    22.627     7.791
    79   8 O        0.860    -0.509    23.987     6.566
    80   7 N        2.721    -0.197    25.281     7.468
    81   6 C        2.840     0.243    22.949     7.851
    82   7 N        2.672    -0.268    26.928     7.707
    83   7 N        1.846    -0.370    30.505     8.185
    84   6 C        3.099     0.129    25.074     8.206
    85   1 H        0.924     0.092     1.859     2.132
    86   1 H        0.924     0.088     1.901     2.156
    87   1 H        0.924     0.104     1.745     2.066
    88   1 H        0.924     0.071     2.071     2.251
    89   1 H        0.925     0.074     2.041     2.234
    90   1 H        0.925     0.067     2.120     2.277
    91   1 H        0.925     0.070     2.080     2.255
    92   1 H        0.926     0.054     2.274     2.358
    93   1 H        0.860     0.240     0.925     1.506
    94   1 H        0.860     0.249     0.887     1.476
    95   1 H        0.860     0.269     0.813     1.413
    96  15 P        3.736     0.768   130.408    20.514
    97   8 O        1.614    -0.398    20.831     6.160
    98   8 O        0.808    -0.595    26.028     6.839
    99   8 O        1.657    -0.354    19.971     6.033
   100   6 C        3.908     0.048    19.718     6.312
   101   6 C        3.847     0.094    18.991     6.199
   102   8 O        1.703    -0.318    19.310     5.933
   103   6 C        3.972     0.112    18.678     6.140
   104   8 O        1.659    -0.348    19.876     6.018
   105   6 C        3.839    -0.089    22.160     6.697
   106   6 C        3.789     0.177    17.788     6.007
   107   7 N        2.835    -0.057    22.342     7.020
   108   6 C        3.164     0.095    25.585     8.267
   109   7 N        1.870    -0.305    28.759     7.949
   110   6 C        3.213    -0.018    27.794     8.579
   111   6 C        2.774     0.262    22.578     7.782
   112   8 O        0.860    -0.509    23.974     6.565
   113   7 N        2.716    -0.193    25.183     7.453
   114   6 C        2.850     0.242    22.952     7.852
   115   7 N        2.674    -0.258    26.685     7.672
   116   7 N        1.852    -0.372    30.549     8.192
   117   6 C        3.118     0.128    25.051     8.198
   118   1 H        0.924     0.100     1.788     2.091
   119   1 H        0.924     0.091     1.866     2.136
   120   1 H        0.925     0.090     1.877     2.142
   121   1 H        0.924     0.067     2.119     2.276
   122   1 H        0.925     0.079     1.986     2.204
   123   1 H        0.925     0.084     1.942     2.179
   124   1 H        0.924     0.061     2.184     2.311
   125   1 H        0.926     0.057     2.229     2.335
   126   1 H        0.860     0.245     0.905     1.490
   127   1 H        0.860     0.242     0.913     1.497
   128   1 H        0.860     0.250     0.885     1.473
   129  15 P        3.755     0.770   130.326    20.507
   130   8 O        1.614    -0.407    21.008     6.186
   131   8 O        0.808    -0.601    26.163     6.856
   132   8 O        1.656    -0.353    19.956     6.030
   133   6 C        3.897     0.047    19.740     6.316
   134   6 C        3.779     0.088    19.138     6.232
   135   8 O        1.700    -0.325    19.442     5.953
   136   6 C        3.937     0.113    18.669     6.140
   137   8 O        1.656    -0.343    19.771     6.002
   138   6 C        3.823    -0.085    22.099     6.690
   139   6 C        3.705     0.169    18.024     6.070
   140   7 N        2.821    -0.076    22.722     7.080
   141   6 C        3.145     0.107    25.393     8.245
   142   7 N        1.866    -0.311    28.910     7.970
   143   6 C        3.206     0.012    27.144     8.485
   144   6 C        2.915     0.170    24.341     8.090
   145   7 N        2.673    -0.258    26.691     7.673
   146   7 N        1.867    -0.335    29.546     8.057
   147   6 C        2.926     0.141    24.925     8.187
   148   7 N        1.826    -0.332    29.449     8.041
   149   6 C        3.121     0.134    24.907     8.173
   150   1 H        0.924     0.089     1.889     2.149
   151   1 H        0.925     0.097     1.811     2.104
   152   1 H        0.924     0.116     1.647     2.007
   153   1 H        0.925     0.075     2.031     2.229
   154   1 H        0.924     0.069     2.091     2.261
   155   1 H        0.925     0.075     2.032     2.229
   156   1 H        0.925     0.083     1.948     2.183
   157   1 H        0.926     0.066     2.127     2.281
   158   1 H        0.860     0.208     1.064     1.616
   159   1 H        0.860     0.250     0.884     1.472
   160   1 H        0.926     0.053     2.284     2.364
   161  15 P        3.785     0.761   130.620    20.530
   162   8 O        1.614    -0.403    20.927     6.174
   163   8 O        0.808    -0.614    26.504     6.901
   164   8 O        1.657    -0.331    19.562     5.971
   165   6 C        3.936     0.053    19.632     6.297
   166   6 C        3.821     0.092    19.038     6.209
   167   8 O        1.701    -0.334    19.596     5.977
   168   6 C        3.950     0.112    18.693     6.144
   169   8 O        1.659    -0.354    19.972     6.033
   170   6 C        3.829    -0.088    22.160     6.698
   171   6 C        3.766     0.171    17.896     6.029
   172   7 N        2.823    -0.067    22.527     7.049
   173   6 C        3.154     0.087    25.782     8.303
   174   7 N        1.872    -0.298    28.576     7.924
   175   6 C        3.199    -0.016    27.857     8.602
   176   6 C        2.772     0.262    22.587     7.784
   177   8 O        0.859    -0.518    24.181     6.593
   178   7 N        2.713    -0.194    25.207     7.457
   179   6 C        2.854     0.244    22.915     7.846
   180   7 N        2.676    -0.256    26.637     7.665
   181   7 N        1.858    -0.370    30.506     8.186
   182   6 C        3.124     0.125    25.086     8.202
   183   1 H        0.924     0.090     1.875     2.141
   184   1 H        0.924     0.098     1.802     2.099
   185   1 H        0.924     0.095     1.830     2.115
   186   1 H        0.925     0.071     2.072     2.251
   187   1 H        0.924     0.079     1.985     2.203
   188   1 H        0.925     0.077     2.009     2.216
   189   1 H        0.924     0.073     2.051     2.239
   190   1 H        0.926     0.069     2.095     2.263
   191   1 H        0.861     0.237     0.934     1.514
   192   1 H        0.860     0.241     0.917     1.500
   193   1 H        0.860     0.253     0.873     1.464
   194  15 P        3.759     0.778   130.059    20.486
   195   8 O        1.614    -0.411    21.083     6.197
   196   8 O        0.808    -0.610    26.392     6.886
   197   8 O        1.657    -0.331    19.554     5.969
   198   6 C        3.920     0.052    19.639     6.298
   199   6 C        3.788     0.093    19.061     6.218
   200   8 O        1.700    -0.322    19.389     5.945
   201   6 C        3.930     0.110    18.726     6.150
   202   8 O        1.657    -0.340    19.729     5.996
   203   6 C        3.823    -0.090    22.202     6.705
   204   6 C        3.710     0.169    18.016     6.066
   205   7 N        2.738    -0.088    22.961     7.117
   206   6 C        2.753     0.325    21.483     7.590
   207   8 O        0.862    -0.536    24.597     6.650
   208   7 N        1.863    -0.377    30.709     8.214
   209   6 C        2.880     0.196    23.832     8.003
   210   7 N        2.672    -0.235    26.148     7.594
   211   6 C        2.912    -0.097    30.438     9.047
   212   6 C        2.859     0.043    27.025     8.521
   213   1 H        0.924     0.091     1.867     2.137
   214   1 H        0.924     0.094     1.840     2.121
   215   1 H        0.924     0.096     1.818     2.109
   216   1 H        0.924     0.069     2.102     2.267
   217   1 H        0.925     0.070     2.088     2.260
   218   1 H        0.925     0.091     1.872     2.140
   219   1 H        0.925     0.084     1.934     2.175
   220   1 H        0.860     0.230     0.966     1.540
   221   1 H        0.860     0.242     0.915     1.498
   222   1 H        0.926     0.080     1.980     2.201
   223   1 H        0.926     0.097     1.809     2.103
   224  15 P        3.739     0.766   130.446    20.517
   225   8 O        1.614    -0.405    20.961     6.179
   226   8 O        0.808    -0.615    26.508     6.902
   227   8 O        1.657    -0.324    19.434     5.951
   228   6 C        3.895     0.049    19.709     6.311
   229   6 C        3.814     0.095    19.007     6.205
   230   8 O        1.702    -0.321    19.372     5.943
   231   6 C        3.959     0.105    18.794     6.160
   232   8 O        1.659    -0.352    19.933     6.027
   233   6 C        3.819    -0.094    22.270     6.716
   234   6 C        3.770     0.174    17.846     6.020
   235   7 N        2.737    -0.068    22.567     7.055
   236   6 C        2.701     0.325    21.484     7.586
   237   8 O        0.859    -0.497    23.720     6.530
   238   7 N        2.696    -0.179    24.887     7.409
   239   6 C        2.761     0.277    22.311     7.735
   240   8 O        0.859    -0.474    23.225     6.461
   241   6 C        2.950    -0.035    28.862     8.811
   242   6 C        3.756    -0.130    23.052     6.846
   243   6 C        2.848     0.017    27.618     8.613
   244   1 H        0.925     0.084     1.933     2.174
   245   1 H        0.924     0.095     1.832     2.117
   246   1 H        0.924     0.093     1.848     2.126
   247   1 H        0.925     0.079     1.993     2.208
   248   1 H        0.925     0.098     1.803     2.100
   249   1 H        0.925     0.084     1.935     2.175
   250   1 H        0.925     0.073     2.054     2.241
   251   1 H        0.860     0.244     0.909     1.493
   252   1 H        0.925     0.065     2.142     2.289
   253   1 H        0.924     0.082     1.954     2.186
   254   1 H        0.925     0.092     1.855     2.130
   255   1 H        0.926     0.119     1.622     1.992
   256  15 P        3.762     0.777   130.086    20.488
   257   8 O        0.808    -0.610    26.405     6.888
   258   8 O        1.614    -0.396    20.791     6.154
   259   8 O        1.656    -0.335    19.635     5.982
   260   6 C        3.911     0.066    19.423     6.264
   261   6 C        3.820     0.098    18.959     6.197
   262   8 O        1.703    -0.349    19.862     6.017
   263   6 C        3.759     0.107    18.873     6.193
   264   8 O        1.655    -0.514    23.196     6.502
   265   6 C        3.838    -0.093    22.243     6.710
   266   6 C        3.766     0.184    17.709     5.998
   267   7 N        2.738    -0.096    23.124     7.142
   268   6 C        2.757     0.329    21.407     7.577
   269   8 O        0.862    -0.555    25.047     6.710
   270   7 N        1.872    -0.378    30.739     8.218
   271   6 C        2.885     0.194    23.866     8.009
   272   7 N        2.679    -0.241    26.295     7.616
   273   6 C        2.911    -0.102    30.573     9.067
   274   6 C        2.859     0.032    27.289     8.562
   275   1 H        0.924     0.068     2.109     2.271
   276   1 H        0.924     0.077     2.005     2.214
   277   1 H        0.924     0.077     2.011     2.218
   278   1 H        0.924     0.059     2.216     2.328
   279   1 H        0.805     0.376     0.531     1.144
   280   1 H        0.924     0.078     2.001     2.212
   281   1 H        0.924     0.080     1.983     2.202
   282   1 H        0.924     0.056     2.245     2.343
   283   1 H        0.860     0.244     0.906     1.491
   284   1 H        0.860     0.250     0.882     1.471
   285   1 H        0.926     0.108     1.716     2.048
   286   1 H        0.926     0.107     1.719     2.050
   287   8 O        1.654    -0.486    22.599     6.417
   288   6 C        3.672     0.052    19.932     6.399
   289   6 C        3.781     0.086    19.168     6.237
   290   8 O        1.699    -0.330    19.528     5.966
   291   6 C        3.915     0.115    18.646     6.137
   292   8 O        1.657    -0.342    19.756     6.000
   293   6 C        3.821    -0.084    22.094     6.689
   294   6 C        3.710     0.177    17.894     6.046
   295   7 N        2.816    -0.071    22.620     7.064
   296   6 C        3.152     0.097    25.581     8.272
   297   7 N        1.866    -0.290    28.360     7.894
   298   6 C        3.209    -0.013    27.700     8.569
   299   6 C        2.773     0.265    22.533     7.774
   300   8 O        0.860    -0.510    24.013     6.570
   301   7 N        2.718    -0.184    24.992     7.425
   302   6 C        2.835     0.241    22.976     7.855
   303   7 N        2.668    -0.271    27.003     7.718
   304   7 N        1.843    -0.381    30.817     8.227
   305   6 C        3.083     0.125    25.182     8.226
   306   1 H        0.925     0.089     1.887     2.148
   307   1 H        0.925     0.060     2.193     2.316
   308   1 H        0.924     0.085     1.925     2.170
   309   1 H        0.924     0.067     2.123     2.278
   310   1 H        0.925     0.083     1.944     2.181
   311   1 H        0.925     0.064     2.157     2.297
   312   1 H        0.924     0.055     2.255     2.349
   313   1 H        0.926     0.075     2.031     2.229
   314   1 H        0.860     0.244     0.907     1.492
   315   1 H        0.860     0.250     0.883     1.472
   316   1 H        0.860     0.253     0.872     1.463
   317   1 H        0.805     0.340     0.613     1.230
   318  15 P        3.732     0.745   131.179    20.574
   319   8 O        1.614    -0.409    21.049     6.192
   320   8 O        0.808    -0.613    26.469     6.896
   321   8 O        1.656    -0.340    19.726     5.996
   322   6 C        3.905     0.056    19.583     6.290
   323   6 C        3.802     0.090    19.090     6.220
   324   8 O        1.700    -0.324    19.423     5.950
   325   6 C        3.912     0.115    18.647     6.138
   326   8 O        1.657    -0.340    19.715     5.994
   327   6 C        3.839    -0.083    22.052     6.680
   328   6 C        3.721     0.173    17.926     6.047
   329   7 N        2.834    -0.070    22.589     7.059
   330   6 C        3.182     0.109    25.196     8.193
   331   7 N        1.867    -0.307    28.820     7.958
   332   6 C        3.241     0.012    26.827     8.397
   333   6 C        2.906     0.170    24.347     8.091
   334   7 N        2.664    -0.256    26.640     7.666
   335   7 N        1.858    -0.330    29.411     8.038
   336   6 C        2.925     0.140    24.950     8.191
   337   7 N        1.826    -0.327    29.333     8.025
   338   6 C        3.140     0.135    24.840     8.156
   339   1 H        0.924     0.090     1.880     2.144
   340   1 H        0.925     0.085     1.924     2.169
   341   1 H        0.924     0.107     1.726     2.055
   342   1 H        0.924     0.068     2.113     2.273
   343   1 H        0.925     0.076     2.023     2.224
   344   1 H        0.925     0.068     2.113     2.273
   345   1 H        0.924     0.080     1.976     2.198
   346   1 H        0.926     0.059     2.211     2.325
   347   1 H        0.860     0.215     1.034     1.593
   348   1 H        0.860     0.244     0.908     1.492
   349   1 H        0.926     0.061     2.187     2.312
   350  15 P        3.724     0.757   130.769    20.542
   351   8 O        1.614    -0.390    20.682     6.138
   352   8 O        0.808    -0.591    25.939     6.827
   353   8 O        1.657    -0.350    19.900     6.022
   354   6 C        3.903     0.051    19.661     6.303
   355   6 C        3.804     0.096    19.001     6.206
   356   8 O        1.701    -0.329    19.502     5.962
   357   6 C        3.897     0.110    18.737     6.153
   358   8 O        1.656    -0.337    19.669     5.987
   359   6 C        3.823    -0.087    22.135     6.695
   360   6 C        3.740     0.171    17.931     6.042
   361   7 N        2.820    -0.068    22.550     7.053
   362   6 C        3.135     0.090    25.790     8.313
   363   7 N        1.868    -0.297    28.552     7.920
   364   6 C        3.191    -0.017    27.923     8.619
   365   6 C        2.773     0.262    22.578     7.782
   366   8 O        0.860    -0.516    24.132     6.586
   367   7 N        2.716    -0.192    25.153     7.449
   368   6 C        2.839     0.242    22.958     7.852
   369   7 N        2.669    -0.255    26.619     7.663
   370   7 N        1.847    -0.366    30.397     8.171
   371   6 C        3.092     0.123    25.209     8.229
   372   1 H        0.924     0.096     1.824     2.112
   373   1 H        0.924     0.095     1.832     2.116
   374   1 H        0.924     0.098     1.808     2.103
   375   1 H        0.925     0.076     2.018     2.222
   376   1 H        0.924     0.076     2.022     2.224
   377   1 H        0.925     0.074     2.040     2.233
   378   1 H        0.924     0.076     2.018     2.222
   379   1 H        0.926     0.064     2.155     2.296
   380   1 H        0.860     0.240     0.924     1.506
   381   1 H        0.860     0.244     0.907     1.492
   382   1 H        0.860     0.252     0.876     1.466
   383  15 P        3.730     0.787   129.764    20.463
   384   8 O        1.614    -0.401    20.889     6.169
   385   8 O        0.808    -0.601    26.185     6.859
   386   8 O        1.656    -0.368    20.244     6.074
   387   6 C        3.920     0.052    19.640     6.299
   388   6 C        3.794     0.093    19.048     6.215
   389   8 O        1.700    -0.318    19.317     5.934
   390   6 C        3.952     0.112    18.687     6.143
   391   8 O        1.657    -0.335    19.623     5.980
   392   6 C        3.827    -0.089    22.171     6.700
   393   6 C        3.720     0.167    18.028     6.064
   394   7 N        2.740    -0.089    22.971     7.118
   395   6 C        2.756     0.324    21.494     7.592
   396   8 O        0.862    -0.535    24.581     6.647
   397   7 N        1.869    -0.373    30.586     8.198
   398   6 C        2.882     0.197    23.813     8.000
   399   7 N        2.676    -0.234    26.116     7.590
   400   6 C        2.911    -0.098    30.471     9.052
   401   6 C        2.861     0.043    27.040     8.523
   402   1 H        0.924     0.096     1.821     2.110
   403   1 H        0.925     0.087     1.907     2.159
   404   1 H        0.924     0.098     1.802     2.099
   405   1 H        0.924     0.063     2.167     2.302
   406   1 H        0.925     0.066     2.126     2.280
   407   1 H        0.925     0.092     1.863     2.134
   408   1 H        0.924     0.091     1.866     2.136
   409   1 H        0.860     0.234     0.948     1.525
   410   1 H        0.860     0.243     0.911     1.495
   411   1 H        0.926     0.077     2.015     2.220
   412   1 H        0.926     0.091     1.873     2.140
   413  15 P        3.761     0.796   129.462    20.439
   414   8 O        1.614    -0.401    20.900     6.170
   415   8 O        0.808    -0.608    26.343     6.880
   416   8 O        1.657    -0.351    19.925     6.026
   417   6 C        3.896     0.047    19.736     6.315
   418   6 C        3.778     0.089    19.125     6.230
   419   8 O        1.698    -0.321    19.364     5.941
   420   6 C        3.894     0.110    18.737     6.153
   421   8 O        1.655    -0.348    19.864     6.017
   422   6 C        3.823    -0.099    22.363     6.729
   423   6 C        3.701     0.162    18.128     6.088
   424   7 N        2.734    -0.067    22.532     7.050
   425   6 C        2.699     0.322    21.519     7.593
   426   8 O        0.859    -0.489    23.553     6.507
   427   7 N        2.695    -0.175    24.790     7.395
   428   6 C        2.763     0.278    22.305     7.734
   429   8 O        0.859    -0.477    23.291     6.470
   430   6 C        2.950    -0.037    28.928     8.822
   431   6 C        3.755    -0.126    22.975     6.834
   432   6 C        2.847     0.016    27.636     8.616
   433   1 H        0.925     0.092     1.858     2.132
   434   1 H        0.925     0.087     1.907     2.160
   435   1 H        0.925     0.112     1.681     2.027
   436   1 H        0.924     0.080     1.983     2.202
   437   1 H        0.925     0.091     1.866     2.136
   438   1 H        0.925     0.088     1.903     2.157
   439   1 H        0.925     0.088     1.901     2.156
   440   1 H        0.860     0.244     0.908     1.493
   441   1 H        0.924     0.087     1.906     2.159
   442   1 H        0.925     0.080     1.979     2.200
   443   1 H        0.925     0.056     2.244     2.343
   444   1 H        0.926     0.121     1.605     1.981
   445  15 P        3.715     0.782   129.911    20.474
   446   8 O        1.614    -0.396    20.804     6.156
   447   8 O        0.808    -0.595    26.016     6.837
   448   8 O        1.656    -0.352    19.941     6.028
   449   6 C        3.902     0.051    19.673     6.305
   450   6 C        3.793     0.096    19.012     6.209
   451   8 O        1.701    -0.327    19.476     5.958
   452   6 C        3.926     0.109    18.731     6.151
   453   8 O        1.657    -0.335    19.638     5.982
   454   6 C        3.816    -0.091    22.214     6.708
   455   6 C        3.735     0.176    17.858     6.031
   456   7 N        2.739    -0.087    22.933     7.112
   457   6 C        2.748     0.328    21.424     7.579
   458   8 O        0.861    -0.548    24.864     6.686
   459   7 N        1.855    -0.376    30.676     8.209
   460   6 C        2.875     0.193    23.887     8.012
   461   7 N        2.667    -0.232    26.071     7.583
   462   6 C        2.915    -0.103    30.594     9.070
   463   6 C        2.863     0.037    27.166     8.543
   464   1 H        0.924     0.092     1.856     2.131
   465   1 H        0.924     0.088     1.898     2.154
   466   1 H        0.924     0.091     1.868     2.137
   467   1 H        0.924     0.082     1.962     2.190
   468   1 H        0.925     0.087     1.912     2.162
   469   1 H        0.925     0.072     2.066     2.248
   470   1 H        0.925     0.066     2.132     2.283
   471   1 H        0.860     0.228     0.972     1.545
   472   1 H        0.860     0.254     0.868     1.460
   473   1 H        0.926     0.109     1.708     2.044
   474   1 H        0.926     0.105     1.743     2.064
   475  15 P        3.755     0.782   129.925    20.476
   476   8 O        1.614    -0.407    21.006     6.186
   477   8 O        0.808    -0.611    26.409     6.889
   478   8 O        1.656    -0.354    19.983     6.034
   479   6 C        3.918     0.052    19.638     6.298
   480   6 C        3.791     0.094    19.031     6.213
   481   8 O        1.701    -0.338    19.676     5.989
   482   6 C        3.926     0.114    18.668     6.140
   483   8 O        1.657    -0.345    19.809     6.008
   484   6 C        3.823    -0.089    22.182     6.702
   485   6 C        3.728     0.179    17.833     6.029
   486   7 N        2.737    -0.090    23.004     7.123
   487   6 C        2.754     0.331    21.380     7.572
   488   8 O        0.862    -0.539    24.662     6.658
   489   7 N        1.865    -0.381    30.804     8.227
   490   6 C        2.880     0.194    23.880     8.011
   491   7 N        2.674    -0.239    26.253     7.610
   492   6 C        2.911    -0.101    30.537     9.061
   493   6 C        2.859     0.040    27.096     8.532
   494   1 H        0.924     0.085     1.924     2.169
   495   1 H        0.925     0.087     1.909     2.161
   496   1 H        0.924     0.097     1.816     2.107
   497   1 H        0.924     0.080     1.980     2.200
   498   1 H        0.925     0.089     1.889     2.149
   499   1 H        0.925     0.076     2.022     2.224
   500   1 H        0.925     0.064     2.153     2.295
   501   1 H        0.860     0.235     0.944     1.522
   502   1 H        0.860     0.252     0.876     1.466
   503   1 H        0.926     0.105     1.736     2.061
   504   1 H        0.926     0.099     1.796     2.095
   505  15 P        3.720     0.775   130.146    20.493
   506   8 O        1.614    -0.409    21.044     6.192
   507   8 O        0.808    -0.608    26.333     6.879
   508   8 O        1.657    -0.349    19.894     6.021
   509   6 C        3.892     0.057    19.570     6.289
   510   6 C        3.839     0.100    18.904     6.185
   511   8 O        1.703    -0.336    19.639     5.983
   512   6 C        3.881     0.109    18.754     6.157
   513   8 O        1.657    -0.348    19.876     6.018
   514   6 C        3.838    -0.090    22.178     6.700
   515   6 C        3.752     0.174    17.869     6.028
   516   7 N        2.839    -0.063    22.451     7.037
   517   6 C        3.185     0.098    25.398     8.224
   518   7 N        1.867    -0.290    28.380     7.897
   519   6 C        3.243     0.006    26.935     8.411
   520   6 C        2.904     0.174    24.256     8.075
   521   7 N        2.673    -0.241    26.285     7.614
   522   7 N        1.870    -0.336    29.571     8.061
   523   6 C        2.926     0.151    24.721     8.154
   524   7 N        1.826    -0.337    29.583     8.059
   525   6 C        3.141     0.132    24.896     8.165
   526   1 H        0.924     0.078     1.995     2.209
   527   1 H        0.925     0.092     1.862     2.134
   528   1 H        0.924     0.078     2.003     2.213
   529   1 H        0.925     0.088     1.897     2.154
   530   1 H        0.925     0.085     1.933     2.174
   531   1 H        0.925     0.080     1.980     2.200
   532   1 H        0.925     0.065     2.141     2.288
   533   1 H        0.926     0.076     2.017     2.221
   534   1 H        0.860     0.250     0.882     1.471
   535   1 H        0.860     0.245     0.903     1.489
   536   1 H        0.926     0.014     2.821     2.627
   537  15 P        3.699     0.755   130.838    20.547
   538   8 O        1.614    -0.403    20.933     6.175
   539   8 O        0.808    -0.607    26.318     6.877
   540   8 O        1.656    -0.333    19.601     5.977
   541   6 C        3.905     0.061    19.504     6.277
   542   6 C        3.814     0.097    18.976     6.200
   543   8 O        1.703    -0.338    19.666     5.987
   544   6 C        3.763     0.106    18.886     6.195
   545   8 O        1.655    -0.516    23.241     6.508
   546   6 C        3.824    -0.093    22.246     6.712
   547   6 C        3.773     0.177    17.800     6.012
   548   7 N        2.738    -0.076    22.718     7.079
   549   6 C        2.704     0.326    21.466     7.583
   550   8 O        0.859    -0.514    24.086     6.580
   551   7 N        2.699    -0.188    25.065     7.436
   552   6 C        2.762     0.275    22.356     7.743
   553   8 O        0.860    -0.469    23.118     6.446
   554   6 C        2.951    -0.039    28.961     8.827
   555   6 C        3.753    -0.130    23.060     6.848
   556   6 C        2.843     0.024    27.460     8.588
   557   1 H        0.924     0.069     2.100     2.266
   558   1 H        0.924     0.086     1.920     2.167
   559   1 H        0.924     0.083     1.944     2.180
   560   1 H        0.924     0.061     2.191     2.315
   561   1 H        0.805     0.383     0.517     1.129
   562   1 H        0.925     0.074     2.041     2.234
   563   1 H        0.924     0.080     1.979     2.200
   564   1 H        0.925     0.065     2.142     2.289
   565   1 H        0.861     0.249     0.889     1.477
   566   1 H        0.925     0.074     2.044     2.236
   567   1 H        0.924     0.092     1.860     2.133
   568   1 H        0.925     0.079     1.990     2.206
   569   1 H        0.926     0.103     1.754     2.071
   570   1 H        0.899     0.458     0.385     0.970
   571   1 H        0.894     0.488     0.346     0.921
   572   1 H        0.896     0.485     0.349     0.925
   573   1 H        0.897     0.490     0.344     0.918
   574   1 H        0.895     0.478     0.359     0.938
   575   1 H        0.896     0.471     0.368     0.949
   576   1 H        0.896     0.461     0.381     0.966
   577   1 H        0.895     0.463     0.379     0.963
   578   1 H        0.896     0.487     0.348     0.922
   579   1 H        0.894     0.492     0.342     0.915
   580   1 H        0.899     0.471     0.367     0.948
   581   1 H        0.897     0.468     0.372     0.955
   582   1 H        0.897     0.462     0.380     0.965
   583   1 H        0.900     0.463     0.379     0.963
   584   1 H        0.897     0.466     0.374     0.957
   585   1 H        0.896     0.488     0.347     0.921

 Mol. C6AA /au·bohr⁶  :    4454481.830931
 Mol. C8AA /au·bohr⁸  :  110817950.284624
 Mol. α(0) /au        :       3194.633648


Wiberg/Mayer (AO) data.
largest (>0.10) Wiberg bond orders for each atom

 ---------------------------------------------------------------------------
     #   Z sym  total        # sym  WBO       # sym  WBO       # sym  WBO
 ---------------------------------------------------------------------------
     1   8 O    1.902 --     2 C    0.996    30 H    0.849
     2   6 C    3.956 --     1 O    0.996     3 C    0.983    19 H    0.970
                            20 H    0.968
     3   6 C    3.942 --     2 C    0.983     5 C    0.973     4 O    0.960
                            21 H    0.954
     4   8 O    2.070 --     8 C    0.977     3 C    0.960
     5   6 C    3.921 --     7 C    0.995     3 C    0.973    22 H    0.961
                             6 O    0.923
     6   8 O    2.262 --    31 P    1.126     5 C    0.923
     7   6 C    3.988 --     5 C    0.995     8 C    0.982    23 H    0.965
                            24 H    0.965
     8   6 C    3.939 --     7 C    0.982     4 O    0.977     9 N    0.956
                            25 H    0.955
     9   7 N    3.598 --    10 C    1.208    18 C    1.165     8 C    0.956
                            11 N    0.109
    10   6 C    3.946 --    11 N    1.606     9 N    1.208    26 H    0.954
    11   7 N    3.002 --    10 C    1.606    12 C    1.179     9 N    0.109
    12   6 C    3.969 --    18 C    1.338    13 C    1.184    11 N    1.179
    13   6 C    3.972 --    14 N    1.358    15 N    1.292    12 C    1.184
    14   7 N    3.443 --    13 C    1.358    27 H    0.916    28 H    0.896
    15   7 N    3.076 --    16 C    1.406    13 C    1.292
    16   6 C    3.974 --    17 N    1.470    15 N    1.406    29 H    0.957
    17   7 N    3.002 --    16 C    1.470    18 C    1.245
    18   6 C    3.959 --    12 C    1.338    17 N    1.245     9 N    1.165
    19   1 H    0.995 --     2 C    0.970
    20   1 H    0.997 --     2 C    0.968
    21   1 H    0.993 --     3 C    0.954
    22   1 H    0.995 --     5 C    0.961
    23   1 H    0.991 --     7 C    0.965
    24   1 H    0.996 --     7 C    0.965
    25   1 H    0.996 --     8 C    0.955
    26   1 H    0.991 --    10 C    0.954
    27   1 H    0.934 --    14 N    0.916
    28   1 H    0.940 --    14 N    0.896
    29   1 H    0.999 --    16 C    0.957
    30   1 H    0.860 --     1 O    0.849
    31  15 P    5.456 --    33 O    1.776    32 O    1.375     6 O    1.126
                            34 O    1.115
[...]
   324   8 O    2.074 --   328 C    0.972   323 C    0.965
   325   6 C    3.932 --   327 C    0.997   323 C    0.969   342 H    0.961
                           326 O    0.936
   326   8 O    2.265 --   350 P    1.114   325 C    0.936
   327   6 C    3.990 --   325 C    0.997   328 C    0.986   344 H    0.968
                           343 H    0.962
   328   6 C    3.934 --   327 C    0.986   324 O    0.972   329 N    0.956
                           345 H    0.953
   329   7 N    3.596 --   330 C    1.219   338 C    1.150   328 C    0.956
                           331 N    0.113
   330   6 C    3.959 --   331 N    1.605   329 N    1.219   346 H    0.952
   331   7 N    3.001 --   330 C    1.605   332 C    1.177   329 N    0.113
   332   6 C    3.971 --   338 C    1.339   333 C    1.190   331 N    1.177
   333   6 C    3.973 --   334 N    1.337   335 N    1.307   332 C    1.190
   334   7 N    3.432 --   333 C    1.337   347 H    0.935   348 H    0.878
   335   7 N    3.064 --   336 C    1.398   333 C    1.307
   336   6 C    3.966 --   337 N    1.469   335 N    1.398   349 H    0.956
   337   7 N    3.004 --   336 C    1.469   338 C    1.256
   338   6 C    3.959 --   332 C    1.339   337 N    1.256   329 N    1.150
   339   1 H    0.991 --   322 C    0.965
   340   1 H    0.993 --   322 C    0.967
   341   1 H    0.987 --   323 C    0.947
   342   1 H    0.995 --   325 C    0.961
   343   1 H    0.994 --   327 C    0.962
   344   1 H    0.995 --   327 C    0.968
   345   1 H    0.994 --   328 C    0.953
   346   1 H    0.996 --   330 C    0.952
   347   1 H    0.954 --   334 N    0.935
   348   1 H    0.940 --   334 N    0.878
   349   1 H    0.996 --   336 C    0.956
   350  15 P    5.458 --   352 O    1.770   351 O    1.384   353 O    1.126
                           326 O    1.114
   351   8 O    2.283 --   350 P    1.384   584 H    0.740
   352   8 O    1.967 --   350 P    1.770
   353   8 O    2.253 --   350 P    1.126   354 C    0.932
   354   6 C    3.918 --   355 C    0.991   372 H    0.961   373 H    0.960
                           353 O    0.932
   355   6 C    3.941 --   354 C    0.991   357 C    0.965   356 O    0.961
                           374 H    0.948
   356   8 O    2.064 --   360 C    0.970   355 C    0.961
   357   6 C    3.926 --   359 C    0.995   355 C    0.965   375 H    0.962
                           358 O    0.932
   358   8 O    2.268 --   383 P    1.127   357 C    0.932
   359   6 C    3.989 --   357 C    0.995   360 C    0.983   376 H    0.969
                           377 H    0.964
   360   6 C    3.933 --   359 C    0.983   356 O    0.970   361 N    0.959
                           378 H    0.953
   361   7 N    3.588 --   362 C    1.192   371 C    1.167   360 C    0.959
                           363 N    0.111
   362   6 C    3.944 --   363 N    1.613   361 N    1.192   379 H    0.958
   363   7 N    3.010 --   362 C    1.613   364 C    1.189   361 N    0.111
   364   6 C    3.961 --   371 C    1.357   363 N    1.189   365 C    1.126
   365   6 C    3.949 --   366 O    1.573   367 N    1.139   364 C    1.126
   366   8 O    1.937 --   365 C    1.573   367 N    0.134
   367   7 N    3.517 --   368 C    1.171   365 C    1.139   380 H    0.860
                           366 O    0.134
   368   6 C    3.967 --   370 N    1.361   369 N    1.346   367 N    1.171
   369   7 N    3.410 --   368 C    1.346   382 H    0.916   381 H    0.882
                           370 N    0.108
   370   7 N    2.954 --   368 C    1.361   371 C    1.230   369 N    0.108
   371   6 C    3.960 --   364 C    1.357   370 N    1.230   361 N    1.167
   372   1 H    0.990 --   354 C    0.961
   373   1 H    0.990 --   354 C    0.960
   374   1 H    0.989 --   355 C    0.948
   375   1 H    0.994 --   357 C    0.962
   376   1 H    0.994 --   359 C    0.969
   377   1 H    0.994 --   359 C    0.964
   378   1 H    0.994 --   360 C    0.953
   379   1 H    0.995 --   362 C    0.958
   380   1 H    0.942 --   367 N    0.860
   381   1 H    0.940 --   369 N    0.882
   382   1 H    0.935 --   369 N    0.916
   383  15 P    5.413 --   385 O    1.751   384 O    1.361   358 O    1.127
                           386 O    1.105
   384   8 O    2.265 --   383 P    1.361   583 H    0.739
   385   8 O    1.957 --   383 P    1.751
   386   8 O    2.231 --   383 P    1.105   387 C    0.930
   387   6 C    3.918 --   388 C    0.991   402 H    0.963   403 H    0.956
                           386 O    0.930
   388   6 C    3.943 --   387 C    0.991   390 C    0.969   389 O    0.964
                           404 H    0.948
   389   8 O    2.082 --   393 C    0.986   388 C    0.964
   390   6 C    3.930 --   392 C    0.990   388 C    0.969   405 H    0.959
                           391 O    0.945
   391   8 O    2.264 --   413 P    1.110   390 C    0.945
   392   6 C    3.986 --   390 C    0.990   393 C    0.979   406 H    0.970
                           407 H    0.966
   393   6 C    3.928 --   389 O    0.986   392 C    0.979   408 H    0.952
                           394 N    0.939
   394   7 N    3.577 --   401 C    1.214   395 C    1.082   393 C    0.939
                           396 O    0.112
   395   6 C    3.955 --   396 O    1.530   397 N    1.249   394 N    1.082
   396   8 O    1.910 --   395 C    1.530   397 N    0.121   394 N    0.112
   397   7 N    3.050 --   398 C    1.344   395 C    1.249   396 O    0.121
                           399 N    0.110
   398   6 C    3.966 --   399 N    1.383   397 N    1.344   400 C    1.151
   399   7 N    3.468 --   398 C    1.383   410 H    0.920   409 H    0.896
                           397 N    0.110
   400   6 C    3.978 --   401 C    1.646   398 C    1.151   411 H    0.961
   401   6 C    3.961 --   400 C    1.646   394 N    1.214   412 H    0.951
   402   1 H    0.991 --   387 C    0.963
   403   1 H    0.992 --   387 C    0.956
   404   1 H    0.989 --   388 C    0.948
   405   1 H    0.996 --   390 C    0.959
   406   1 H    0.996 --   392 C    0.970
   407   1 H    0.991 --   392 C    0.966
   408   1 H    0.991 --   393 C    0.952
   409   1 H    0.945 --   399 N    0.896
   410   1 H    0.940 --   399 N    0.920
   411   1 H    0.994 --   400 C    0.961
   412   1 H    0.991 --   401 C    0.951
   413  15 P    5.403 --   415 O    1.744   414 O    1.364   416 O    1.120
                           391 O    1.110
   414   8 O    2.267 --   413 P    1.364   582 H    0.741
   415   8 O    1.951 --   413 P    1.744
   416   8 O    2.250 --   413 P    1.120   417 C    0.933
   417   6 C    3.917 --   418 C    0.983   433 H    0.962   434 H    0.956
                           416 O    0.933
   418   6 C    3.942 --   417 C    0.983   420 C    0.971   419 O    0.966
                           435 H    0.946
   419   8 O    2.076 --   423 C    0.975   418 C    0.966
   420   6 C    3.928 --   422 C    0.994   418 C    0.971   436 H    0.960
                           421 O    0.932
   421   8 O    2.251 --   445 P    1.106   420 C    0.932
   422   6 C    3.984 --   420 C    0.994   423 C    0.985   437 H    0.962
                           438 H    0.960
   423   6 C    3.924 --   422 C    0.985   419 O    0.975   439 H    0.953
                           424 N    0.942
   424   7 N    3.573 --   432 C    1.169   425 C    1.117   423 C    0.942
                           426 O    0.132
   425   6 C    3.959 --   426 O    1.604   427 N    1.155   424 N    1.117
   426   8 O    1.944 --   425 C    1.604   424 N    0.132   427 N    0.130
   427   7 N    3.535 --   425 C    1.155   428 C    1.146   440 H    0.877
                           429 O    0.138   426 O    0.130
   428   6 C    3.937 --   429 O    1.613   427 N    1.146   430 C    1.083
   429   8 O    1.992 --   428 C    1.613   427 N    0.138
   430   6 C    3.981 --   432 C    1.650   428 C    1.083   431 C    1.022
   431   6 C    3.984 --   430 C    1.022   442 H    0.980   443 H    0.969
                           441 H    0.965
   432   6 C    3.952 --   430 C    1.650   424 N    1.169   444 H    0.942
   433   1 H    0.991 --   417 C    0.962
   434   1 H    0.992 --   417 C    0.956
   435   1 H    0.986 --   418 C    0.946
   436   1 H    0.993 --   420 C    0.960
   437   1 H    0.991 --   422 C    0.962
   438   1 H    0.992 --   422 C    0.960
   439   1 H    0.992 --   423 C    0.953
   440   1 H    0.940 --   427 N    0.877
   441   1 H    0.991 --   431 C    0.965
   442   1 H    0.993 --   431 C    0.980
   443   1 H    0.995 --   431 C    0.969
   444   1 H    0.985 --   432 C    0.942
   445  15 P    5.413 --   447 O    1.757   446 O    1.372   448 O    1.112
                           421 O    1.106
   446   8 O    2.275 --   445 P    1.372   581 H    0.741
   447   8 O    1.961 --   445 P    1.757
   448   8 O    2.244 --   445 P    1.112   449 C    0.937
   449   6 C    3.922 --   450 C    0.987   464 H    0.964   465 H    0.962
                           448 O    0.937
   450   6 C    3.942 --   449 C    0.987   452 C    0.968   451 O    0.964
                           466 H    0.949
   451   8 O    2.070 --   455 C    0.973   450 C    0.964
   452   6 C    3.921 --   454 C    0.993   450 C    0.968   467 H    0.959
                           453 O    0.930
   453   8 O    2.273 --   475 P    1.138   452 C    0.930
   454   6 C    3.988 --   452 C    0.993   455 C    0.980   469 H    0.969
                           468 H    0.967
   455   6 C    3.933 --   454 C    0.980   451 O    0.973   470 H    0.956
                           456 N    0.955
   456   7 N    3.575 --   463 C    1.200   457 C    1.082   455 C    0.955
                           458 O    0.111
   457   6 C    3.952 --   458 O    1.533   459 N    1.244   456 N    1.082
   458   8 O    1.915 --   457 C    1.533   459 N    0.121   456 N    0.111
   459   7 N    3.046 --   460 C    1.340   457 C    1.244   458 O    0.121
                           461 N    0.114
   460   6 C    3.965 --   461 N    1.389   459 N    1.340   462 C    1.149
   461   7 N    3.476 --   460 C    1.389   472 H    0.915   471 H    0.891
                           459 N    0.114
   462   6 C    3.972 --   463 C    1.653   460 C    1.149   473 H    0.955
   463   6 C    3.953 --   462 C    1.653   456 N    1.200   474 H    0.949
   464   1 H    0.991 --   449 C    0.964
   465   1 H    0.992 --   449 C    0.962
   466   1 H    0.991 --   450 C    0.949
   467   1 H    0.993 --   452 C    0.959
   468   1 H    0.992 --   454 C    0.967
   469   1 H    0.995 --   454 C    0.969
   470   1 H    0.995 --   455 C    0.956
   471   1 H    0.947 --   461 N    0.891
   472   1 H    0.935 --   461 N    0.915
   473   1 H    0.988 --   462 C    0.955
   474   1 H    0.988 --   463 C    0.949
   475  15 P    5.412 --   477 O    1.733   476 O    1.354   453 O    1.138
                           478 O    1.114
   476   8 O    2.257 --   475 P    1.354   580 H    0.739
   477   8 O    1.942 --   475 P    1.733
   478   8 O    2.244 --   475 P    1.114   479 C    0.934
   479   6 C    3.922 --   480 C    0.988   494 H    0.966   495 H    0.962
                           478 O    0.934
   480   6 C    3.942 --   479 C    0.988   482 C    0.970   481 O    0.962
                           496 H    0.948
   481   8 O    2.063 --   485 C    0.968   480 C    0.962
   482   6 C    3.925 --   484 C    0.993   480 C    0.970   497 H    0.960
                           483 O    0.930
   483   8 O    2.259 --   505 P    1.121   482 C    0.930
   484   6 C    3.988 --   482 C    0.993   485 C    0.986   499 H    0.969
                           498 H    0.962
   485   6 C    3.930 --   484 C    0.986   481 O    0.968   500 H    0.953
                           486 N    0.951
   486   7 N    3.572 --   493 C    1.203   487 C    1.079   485 C    0.951
                           488 O    0.111
   487   6 C    3.952 --   488 O    1.533   489 N    1.248   486 N    1.079
   488   8 O    1.921 --   487 C    1.533   489 N    0.119   486 N    0.111
   489   7 N    3.041 --   490 C    1.346   487 C    1.248   488 O    0.119
                           491 N    0.111
   490   6 C    3.966 --   491 N    1.383   489 N    1.346   492 C    1.148
   491   7 N    3.463 --   490 C    1.383   502 H    0.916   501 H    0.889
                           489 N    0.111
   492   6 C    3.972 --   493 C    1.653   490 C    1.148   503 H    0.956
   493   6 C    3.954 --   492 C    1.653   486 N    1.203   504 H    0.951
   494   1 H    0.992 --   479 C    0.966
   495   1 H    0.992 --   479 C    0.962
   496   1 H    0.989 --   480 C    0.948
   497   1 H    0.993 --   482 C    0.960
   498   1 H    0.992 --   484 C    0.962
   499   1 H    0.994 --   484 C    0.969
   500   1 H    0.995 --   485 C    0.953
   501   1 H    0.944 --   491 N    0.889
   502   1 H    0.935 --   491 N    0.916
   503   1 H    0.988 --   492 C    0.956
   504   1 H    0.989 --   493 C    0.951
   505  15 P    5.418 --   507 O    1.738   506 O    1.372   483 O    1.121
                           508 O    1.121
   506   8 O    2.262 --   505 P    1.372   579 H    0.724
   507   8 O    1.942 --   505 P    1.738
   508   8 O    2.254 --   505 P    1.121   509 C    0.936
   509   6 C    3.922 --   510 C    0.988   526 H    0.965   527 H    0.965
                           508 O    0.936
   510   6 C    3.943 --   509 C    0.988   512 C    0.967   511 O    0.963
                           528 H    0.950
   511   8 O    2.064 --   515 C    0.967   510 C    0.963
   512   6 C    3.925 --   514 C    0.997   510 C    0.967   529 H    0.958
                           513 O    0.927
   513   8 O    2.262 --   537 P    1.121   512 C    0.927
   514   6 C    3.988 --   512 C    0.997   515 C    0.980   530 H    0.965
                           531 H    0.962
   515   6 C    3.932 --   514 C    0.980   511 O    0.967   516 N    0.964
                           532 H    0.950
   516   7 N    3.602 --   517 C    1.224   525 C    1.151   515 C    0.964
                           518 N    0.113
   517   6 C    3.951 --   518 N    1.598   516 N    1.224   533 H    0.954
   518   7 N    2.997 --   517 C    1.598   519 C    1.179   516 N    0.113
   519   6 C    3.969 --   525 C    1.343   520 C    1.182   518 N    1.179
   520   6 C    3.972 --   521 N    1.354   522 N    1.299   519 C    1.182
   521   7 N    3.444 --   520 C    1.354   534 H    0.919   535 H    0.896
   522   7 N    3.075 --   523 C    1.411   520 C    1.299
   523   6 C    3.974 --   524 N    1.465   522 N    1.411   536 H    0.958
   524   7 N    3.002 --   523 C    1.465   525 C    1.249
   525   6 C    3.958 --   519 C    1.343   524 N    1.249   516 N    1.151
   526   1 H    0.994 --   509 C    0.965
   527   1 H    0.991 --   509 C    0.965
   528   1 H    0.993 --   510 C    0.950
   529   1 H    0.992 --   512 C    0.958
   530   1 H    0.992 --   514 C    0.965
   531   1 H    0.994 --   514 C    0.962
   532   1 H    0.996 --   515 C    0.950
   533   1 H    0.993 --   517 C    0.954
   534   1 H    0.937 --   521 N    0.919
   535   1 H    0.939 --   521 N    0.896
   536   1 H    0.999 --   523 C    0.958
   537  15 P    5.457 --   539 O    1.735   538 O    1.384   540 O    1.153
                           513 O    1.121
   538   8 O    2.275 --   537 P    1.384   578 H    0.729
   539   8 O    1.945 --   537 P    1.735
   540   8 O    2.271 --   537 P    1.153   541 C    0.932
   541   6 C    3.922 --   542 C    0.988   558 H    0.967   557 H    0.966
                           540 O    0.932
   542   6 C    3.939 --   541 C    0.988   544 C    0.969   543 O    0.959
                           559 H    0.952
   543   8 O    2.063 --   547 C    0.971   542 C    0.959
   544   6 C    3.960 --   545 O    0.993   546 C    0.986   542 C    0.969
                           560 H    0.963
   545   8 O    1.904 --   544 C    0.993   561 H    0.841
   546   6 C    3.986 --   544 C    0.986   547 C    0.977   563 H    0.972
                           562 H    0.969
   547   6 C    3.922 --   546 C    0.977   543 O    0.971   564 H    0.954
                           548 N    0.951
   548   7 N    3.573 --   556 C    1.165   549 C    1.119   547 C    0.951
                           550 O    0.129
   549   6 C    3.959 --   550 O    1.587   551 N    1.168   548 N    1.119
   550   8 O    1.929 --   549 C    1.587   548 N    0.129   551 N    0.129
   551   7 N    3.530 --   549 C    1.168   552 C    1.143   565 H    0.850
                           553 O    0.137   550 O    0.129
   552   6 C    3.940 --   553 O    1.614   551 N    1.143   554 C    1.086
   553   8 O    1.969 --   552 C    1.614   551 N    0.137
   554   6 C    3.977 --   556 C    1.646   552 C    1.086   555 C    1.021
   555   6 C    3.981 --   554 C    1.021   566 H    0.982   568 H    0.967
                           567 H    0.965
   556   6 C    3.948 --   554 C    1.646   548 N    1.165   569 H    0.948
   557   1 H    0.995 --   541 C    0.966
   558   1 H    0.992 --   541 C    0.967
   559   1 H    0.992 --   542 C    0.952
   560   1 H    0.996 --   544 C    0.963
   561   1 H    0.853 --   545 O    0.841
   562   1 H    0.994 --   546 C    0.969
   563   1 H    0.994 --   546 C    0.972
   564   1 H    0.995 --   547 C    0.954
   565   1 H    0.937 --   551 N    0.850
   566   1 H    0.994 --   555 C    0.982
   567   1 H    0.990 --   555 C    0.965
   568   1 H    0.992 --   555 C    0.967
   569   1 H    0.989 --   556 C    0.948
   570   1 H    0.789 --   258 O    0.740
   571   1 H    0.762 --   225 O    0.727
   572   1 H    0.764 --   195 O    0.728
   573   1 H    0.760 --   162 O    0.726
   574   1 H    0.772 --   130 O    0.733
   575   1 H    0.778 --    97 O    0.737
   576   1 H    0.787 --    64 O    0.739
   577   1 H    0.786 --    32 O    0.742
   578   1 H    0.763 --   538 O    0.729
   579   1 H    0.758 --   506 O    0.724
   580   1 H    0.777 --   476 O    0.739
   581   1 H    0.781 --   446 O    0.741
   582   1 H    0.787 --   414 O    0.741
   583   1 H    0.786 --   384 O    0.739
   584   1 H    0.783 --   351 O    0.740
   585   1 H    0.762 --   319 O    0.727
 ---------------------------------------------------------------------------

Topologies differ in total number of bonds
Writing topology from bond orders to xtbtopo.mol

molecular dipole:
                 x           y           z       tot (Debye)
 q only:       20.410      16.389       8.525
   full:       21.289      15.878       8.621      70.970
molecular quadrupole (traceless):
                xx          xy          yy          xz          yz          zz
 q only:     1004.228    2588.797    -127.334    2039.628    2276.235    -876.894
  q+dip:     1136.936    2624.990    -270.430    2091.953    2305.613    -866.506
   full:     1129.365    2628.028    -281.796    2078.186    2295.682    -847.569


           -------------------------------------------------
          | TOTAL ENERGY            -1154.243527502927 Eh   |
          | GRADIENT NORM               0.586004536373 Eh/α |
          | HOMO-LUMO GAP               2.470549553348 eV   |
           -------------------------------------------------
########################################################################
[WARNING] Runtime exception occurred
-2- restart_readRestart: Dimension missmatch in restart file.
-1- restart_readRestart: Number of electron missmatch in restart file.
########################################################################

------------------------------------------------------------------------
 * finished run on 2023/03/09 at 13:52:17.137     
------------------------------------------------------------------------
 total:
 * wall-time:     0 d,  0 h,  0 min,  7.673 sec
 *  cpu-time:     0 d,  0 h,  1 min, 13.569 sec
 * ratio c/w:     9.588 speedup
 SCF:
 * wall-time:     0 d,  0 h,  0 min,  7.041 sec
 *  cpu-time:     0 d,  0 h,  1 min,  7.915 sec
 * ratio c/w:     9.646 speedup

