      -----------------------------------------------------------      
     |                   =====================                   |     
     |                           x T B                           |     
     |                   =====================                   |     
     |                         S. Grimme                         |     
     |          Mulliken Center for Theoretical Chemistry        |     
     |                    University of Bonn                     |     
      -----------------------------------------------------------      

   * xtb version 6.5.1 (579679a) compiled by 'ehlert@majestix' on 2022-07-11

   xtb is free software: you can redistribute it and/or modify it under
   the terms of the GNU Lesser General Public License as published by
   the Free Software Foundation, either version 3 of the License, or
   (at your option) any later version.
   
   xtb is distributed in the hope that it will be useful,
   but WITHOUT ANY WARRANTY; without even the implied warranty of
   MERCHANTABILITY or FITNESS FOR A PARTICULAR PURPOSE.  See the
   GNU Lesser General Public License for more details.
   
   Cite this work as:
   * C. Bannwarth, E. Caldeweyher, S. Ehlert, A. Hansen, P. Pracht,
     J. Seibert, S. Spicher, S. Grimme, WIREs Comput. Mol. Sci., 2020, 11,
     e01493. DOI: 10.1002/wcms.1493
   
   for GFN2-xTB:
   * C. Bannwarth, S. Ehlert and S. Grimme., J. Chem. Theory Comput., 2019,
     15, 1652-1671. DOI: 10.1021/acs.jctc.8b01176
   for GFN1-xTB:
   * S. Grimme, C. Bannwarth, P. Shushkov, J. Chem. Theory Comput., 2017,
     13, 1989-2009. DOI: 10.1021/acs.jctc.7b00118
   for GFN0-xTB:
   * P. Pracht, E. Caldeweyher, S. Ehlert, S. Grimme, ChemRxiv, 2019, preprint.
     DOI: 10.26434/chemrxiv.8326202.v1
   for GFN-FF:
   * S. Spicher and S. Grimme, Angew. Chem. Int. Ed., 2020, 59, 15665-15673.
     DOI: 10.1002/anie.202004239
   
   for ALPB and GBSA implicit solvation:
   * S. Ehlert, M. Stahn, S. Spicher, S. Grimme, J. Chem. Theory Comput.,
     2021, 17, 4250-4261. DOI: 10.1021/acs.jctc.1c00471
   
   for DFT-D4:
   * E. Caldeweyher, C. Bannwarth and S. Grimme, J. Chem. Phys., 2017,
     147, 034112. DOI: 10.1063/1.4993215
   * E. Caldeweyher, S. Ehlert, A. Hansen, H. Neugebauer, S. Spicher,
     C. Bannwarth and S. Grimme, J. Chem. Phys., 2019, 150, 154122.
     DOI: 10.1063/1.5090222
   * E. Caldeweyher, J.-M. Mewes, S. Ehlert and S. Grimme, Phys. Chem. Chem. Phys.
     2020, 22, 8499-8512. DOI: 10.1039/D0CP00502A
   
   for sTDA-xTB:
   * S. Grimme and C. Bannwarth, J. Chem. Phys., 2016, 145, 054103.
     DOI: 10.1063/1.4959605
   
   in the mass-spec context:
   * V. Asgeirsson, C. Bauer and S. Grimme, Chem. Sci., 2017, 8, 4879.
     DOI: 10.1039/c7sc00601b
   * J. Koopman and S. Grimme, ACS Omega 2019, 4, 12, 15120-15133.
     DOI: 10.1021/acsomega.9b02011
   
   for metadynamics refer to:
   * S. Grimme, J. Chem. Theory Comput., 2019, 155, 2847-2862
     DOI: 10.1021/acs.jctc.9b00143
   
   for SPH calculations refer to:
   * S. Spicher and S. Grimme, J. Chem. Theory Comput., 2021, 17, 1701-1714
     DOI: 10.1021/acs.jctc.0c01306
   
   with help from (in alphabetical order)
   P. Atkinson, C. Bannwarth, F. Bohle, G. Brandenburg, E. Caldeweyher
   M. Checinski, S. Dohm, S. Ehlert, S. Ehrlich, I. Gerasimov, C. Hölzer
   A. Katbashev, J. Koopman, C. Lavigne, S. Lehtola, F. März, M. Müller,
   F. Musil, H. Neugebauer, J. Pisarek, C. Plett, P. Pracht, F. Pultar,
   J. Seibert, P. Shushkov, S. Spicher, M. Stahn, M. Steiner, T. Strunk,
   J. Stückrath, T. Rose, and J. Unsleber
   
 * started run on 2023/03/09 at 13:52:17.177     

           -------------------------------------------------
          |                Calculation Setup                |
           -------------------------------------------------

          program call               : /N/u/schandy/BigRed3/bin/xtb-6.5.1/bin/xtb 2n5p.xyz --gbsa water
          hostname                   : nid00065
          coordinate file            : 2n5p.xyz
          omp threads                :                    10

   ID    Z sym.   atoms
    1    8 O      1, 4, 6, 32-34, 37, 39, 44, 47, 64-66, 69, 71, 79, 97-99,
                  102, 104, 112, 130-132, 135, 137, 162-164, 167, 169, 177,
                  195-197, 200, 202, 207, 225-227, 230, 232, 237, 240,
                  257-259, 262, 264, 269, 287, 290, 292, 300, 319-321, 324,
                  326, 351-353, 356, 358, 366, 384-386, 389, 391, 396,
                  414-416, 419, 421, 426, 429, 446-448, 451, 453, 458,
                  476-478, 481, 483, 488, 506-508, 511, 513, 538-540, 543,
                  545, 550, 553
    2    6 C      2, 3, 5, 7, 8, 10, 12, 13, 16, 18, 35, 36, 38, 40, 41, 43,
                  46, 48-50, 67, 68, 70, 72, 73, 75, 77, 78, 81, 84, 100,
                  101, 103, 105, 106, 108, 110, 111, 114, 117, 133, 134, 136,
                  138, 139, 141, 143, 144, 147, 149, 165, 166, 168, 170, 171,
                  173, 175, 176, 179, 182, 198, 199, 201, 203, 204, 206, 209,
                  211, 212, 228, 229, 231, 233, 234, 236, 239, 241-243, 260,
                  261, 263, 265, 266, 268, 271, 273, 274, 288, 289, 291, 293,
                  294, 296, 298, 299, 302, 305, 322, 323, 325, 327, 328, 330,
                  332, 333, 336, 338, 354, 355, 357, 359, 360, 362, 364, 365,
                  368, 371, 387, 388, 390, 392, 393, 395, 398, 400, 401, 417,
                  418, 420, 422, 423, 425, 428, 430-432, 449, 450, 452, 454,
                  455, 457, 460, 462, 463, 479, 480, 482, 484, 485, 487, 490,
                  492, 493, 509, 510, 512, 514, 515, 517, 519, 520, 523, 525,
                  541, 542, 544, 546, 547, 549, 552, 554-556
    3    7 N      9, 11, 14, 15, 17, 42, 45, 74, 76, 80, 82, 83, 107, 109,
                  113, 115, 116, 140, 142, 145, 146, 148, 172, 174, 178, 180,
                  181, 205, 208, 210, 235, 238, 267, 270, 272, 295, 297, 301,
                  303, 304, 329, 331, 334, 335, 337, 361, 363, 367, 369, 370,
                  394, 397, 399, 424, 427, 456, 459, 461, 486, 489, 491, 516,
                  518, 521, 522, 524, 548, 551
    4    1 H      19-30, 51-62, 85-95, 118-128, 150-160, 183-193, 213-223,
                  244-255, 275-286, 306-317, 339-349, 372-382, 402-412,
                  433-444, 464-474, 494-504, 526-536, 557-585
    5   15 P      31, 63, 96, 129, 161, 194, 224, 256, 318, 350, 383, 413,
                  445, 475, 505, 537

molecular fragmentation (1/2 indicates fragments):
111111111111111111111111111111111111111111111111111111111111111111111111
111111111111111111111111111111111111111111111111111111111111111111111111
111111111111111111111111111111111111111111111111111111111111111111111111
111111111111111111111111111111111111111111111111111111111111111111111122
222222222222222222222222222222222222222222222222222222222222222222222222
222222222222222222222222222222222222222222222222222222222222222222222222
222222222222222222222222222222222222222222222222222222222222222222222222
222222222222222222222222222222222222222222222222222222222222222221111111
122222222
# atoms in fragment 1/2:   294   291
 fragment masses (1/2) :     2738.82     2698.80
CMA distance (Bohr)    :   4.381
constraining FC (au)   :  0.0500

           -------------------------------------------------
          |                 G F N 2 - x T B                 |
           -------------------------------------------------

        Reference                      10.1021/acs.jctc.8b01176
      * Hamiltonian:
        H0-scaling (s, p, d)           1.850000    2.230000    2.230000
        zeta-weighting                 0.500000
      * Dispersion:
        s8                             2.700000
        a1                             0.520000
        a2                             5.000000
        s9                             5.000000
      * Repulsion:
        kExp                           1.500000    1.000000
        rExp                           1.000000
      * Coulomb:
        alpha                          2.000000
        third order                    shell-resolved
        anisotropic                    true
        a3                             3.000000
        a5                             4.000000
        cn-shift                       1.200000
        cn-exp                         4.000000
        max-rad                        5.000000

      * Solvation model:               GBSA
        Solvent                        water
        Parameter file                 internal GFN2-xTB/GBSA
        Dielectric constant                8.0200E+01
        Reference state                gsolv [1 M gas/solution]
        Free energy shift                  1.8574E-03 Eh       1.1656E+00 kcal/mol
        Temperature                        2.9815E+02 K
        Density                            1.0000E+00 kg/L
        Solvent mass                       1.8000E+01 g/mol
        Interaction kernel             Still
        Born radius scaling (c1)           1.5524E+00
        Born radii integrator          GBOBC
        Born offset                        2.4628E-02 a0       4.6540E-02 AA
        H-bond correction              true
        Ion screening                  false
        Surface tension                    1.0000E-05 Eh       1.5569E+01 dyn/cm
        Grid points                               230 per atom
q/qsh data taken from xtbrestart
CAMM data taken from xtbrestart

          ...................................................
          :                      SETUP                      :
          :.................................................:
          :  # basis functions                1770          :
          :  # atomic orbitals                1754          :
          :  # shells                          964          :
          :  # electrons                      1966          :
          :  max. iterations                   250          :
          :  Hamiltonian                  GFN2-xTB          :
          :  restarted?                       true          :
          :  GBSA solvation                   true          :
          :  PC potential                    false          :
          :  electronic temp.          300.0000000     K    :
          :  accuracy                    1.0000000          :
          :  -> integral cutoff          0.2500000E+02      :
          :  -> integral neglect         0.1000000E-07      :
          :  -> SCF convergence          0.1000000E-05 Eh   :
          :  -> wf. convergence          0.1000000E-03 e    :
          :  Broyden damping             0.4000000          :
          ...................................................

 iter      E             dE          RMSdq      gap      omega  full diag
   1  -1165.4376810 -0.116544E+04  0.220E-01    2.28       0.0  T
   2  -1165.4475797 -0.989870E-02  0.817E-02    2.42       1.0  T
   3  -1165.4485908 -0.101107E-02  0.461E-02    2.38       1.0  T
   4  -1165.4488895 -0.298760E-03  0.235E-02    2.39       1.0  T
   5  -1165.4490056 -0.116114E-03  0.905E-03    2.39       1.0  T
   6  -1165.4490175 -0.118685E-04  0.473E-03    2.39       1.0  T
   7  -1165.4490208 -0.328859E-05  0.243E-03    2.39       1.7  T
   8  -1165.4490217 -0.912956E-06  0.131E-03    2.39       3.1  T
   9  -1165.4490219 -0.246207E-06  0.600E-04    2.39       6.9  T
  10  -1165.4490220 -0.656707E-07  0.263E-04    2.39      15.7  T

   *** convergence criteria satisfied after 10 iterations ***

         #    Occupation            Energy/Eh            Energy/eV
      -------------------------------------------------------------
         1        2.0000           -0.7813929             -21.2628
       ...           ...                  ...                  ...
       977        2.0000           -0.3820065             -10.3949
       978        2.0000           -0.3811939             -10.3728
       979        2.0000           -0.3794996             -10.3267
       980        2.0000           -0.3786082             -10.3025
       981        2.0000           -0.3785327             -10.3004
       982        2.0000           -0.3753086             -10.2127
       983        2.0000           -0.3720844             -10.1249 (HOMO)
       984                         -0.2842279              -7.7342 (LUMO)
       985                         -0.2824956              -7.6871
       986                         -0.2813532              -7.6560
       987                         -0.2785614              -7.5800
       988                         -0.2771441              -7.5415
       ...                                ...                  ...
      1754                          1.3490737              36.7102
      -------------------------------------------------------------
                  HL-Gap            0.0878565 Eh            2.3907 eV
             Fermi-level           -0.3281562 Eh           -8.9296 eV

 SCC (total)                   0 d,  0 h,  0 min,  5.594 sec
 SCC setup                      ...        0 min,  0.048 sec (  0.867%)
 Dispersion                     ...        0 min,  0.138 sec (  2.466%)
 classical contributions        ...        0 min,  0.002 sec (  0.044%)
 integral evaluation            ...        0 min,  0.359 sec (  6.410%)
 iterations                     ...        0 min,  3.676 sec ( 65.705%)
 molecular gradient             ...        0 min,  1.305 sec ( 23.326%)
 printout                       ...        0 min,  0.066 sec (  1.180%)

         :::::::::::::::::::::::::::::::::::::::::::::::::::::
         ::                     SUMMARY                     ::
         :::::::::::::::::::::::::::::::::::::::::::::::::::::
         :: total energy           -1154.127162403367 Eh    ::
         :: total w/o Gsasa/hb     -1153.943892655389 Eh    ::
         :: gradient norm              0.615134143073 Eh/a0 ::
         :: HOMO-LUMO gap              2.390695843587 eV    ::
         ::.................................................::
         :: SCC energy             -1165.449022012007 Eh    ::
         :: -> isotropic ES            3.977019290716 Eh    ::
         :: -> anisotropic ES         -0.224408987403 Eh    ::
         :: -> anisotropic XC          0.209220635569 Eh    ::
         :: -> dispersion             -1.002174315238 Eh    ::
         :: -> Gsolv                  -0.692301894102 Eh    ::
         ::    -> Gelec               -0.509032146123 Eh    ::
         ::    -> Gsasa               -0.013186357644 Eh    ::
         ::    -> Ghb                 -0.171940833462 Eh    ::
         ::    -> Gshift               0.001857443127 Eh    ::
         :: repulsion energy          11.235586918330 Eh    ::
         :: add. restraining           0.000000000000 Eh    ::
         :: total charge              -0.000000000000 e     ::
         :::::::::::::::::::::::::::::::::::::::::::::::::::::

           -------------------------------------------------
          |                Property Printout                |
           -------------------------------------------------

    * Orbital Energies and Occupations

         #    Occupation            Energy/Eh            Energy/eV
      -------------------------------------------------------------
         1        2.0000           -0.7813929             -21.2628
       ...           ...                  ...                  ...
       971        2.0000           -0.3912703             -10.6470
       972        2.0000           -0.3887979             -10.5797
       973        2.0000           -0.3884863             -10.5713
       974        2.0000           -0.3851092             -10.4794
       975        2.0000           -0.3834936             -10.4354
       976        2.0000           -0.3831477             -10.4260
       977        2.0000           -0.3820065             -10.3949
       978        2.0000           -0.3811939             -10.3728
       979        2.0000           -0.3794996             -10.3267
       980        2.0000           -0.3786082             -10.3025
       981        2.0000           -0.3785327             -10.3004
       982        2.0000           -0.3753086             -10.2127
       983        2.0000           -0.3720844             -10.1249 (HOMO)
       984                         -0.2842279              -7.7342 (LUMO)
       985                         -0.2824956              -7.6871
       986                         -0.2813532              -7.6560
       987                         -0.2785614              -7.5800
       988                         -0.2771441              -7.5415
       989                         -0.2763634              -7.5202
       990                         -0.2756912              -7.5019
       991                         -0.2755492              -7.4981
       992                         -0.2743796              -7.4662
       993                         -0.2642307              -7.1901
       994                         -0.2603574              -7.0847
       ...                                ...                  ...
      1754                          1.3490737              36.7102
      -------------------------------------------------------------
                  HL-Gap            0.0878565 Eh            2.3907 eV
             Fermi-level           -0.3281562 Eh           -8.9296 eV

 * generalized Born model for continuum solvation

     #   Z     Born rad/Å   SASA/Å²    H-bond
     1   8 O        2.307     6.751    -0.001
     2   6 C        2.734     0.814    -0.000
     3   6 C        3.131     0.377    -0.000
     4   8 O        2.773    10.850    -0.001
     5   6 C        3.226     0.414    -0.000
     6   8 O        2.642     4.666    -0.001
     7   6 C        3.287     0.185    -0.000
     8   6 C        3.486     0.623    -0.000
     9   7 N        3.576     1.009    -0.000
    10   6 C        3.037     6.810    -0.000
    11   7 N        2.693    16.245    -0.005
    12   6 C        3.827     3.748    -0.000
    13   6 C        3.575     3.703    -0.000
    14   7 N        2.581     3.809    -0.001
    15   7 N        3.308     1.884    -0.001
    16   6 C        3.204     5.404    -0.000
    17   7 N        2.981     5.381    -0.002
    18   6 C        3.997     3.383    -0.000
    19   1 H        2.076    17.349    -0.023
    20   1 H        2.064    17.970    -0.024
    21   1 H        2.137    16.530    -0.022
    22   1 H        2.198    10.987    -0.015
    23   1 H        2.359     5.411    -0.007
    24   1 H        2.434     0.031    -0.000
    25   1 H        2.460     4.317    -0.006
    26   1 H        2.202     9.734    -0.013
    27   1 H        2.160    20.226    -0.027
    28   1 H        2.469     2.212    -0.003
    29   1 H        2.354     7.440    -0.010
    30   1 H        1.933    20.455    -0.027
    31  15 P        3.223     9.078    -0.001
    32   8 O        2.216    15.184    -0.002
    33   8 O        2.216    21.725    -0.003
    34   8 O        2.676     0.762    -0.000
    35   6 C        2.889     0.409    -0.000
    36   6 C        3.256     0.252    -0.000
    37   8 O        2.981     4.346    -0.001
    38   6 C        3.267     0.434    -0.000
    39   8 O        2.647     4.639    -0.001
    40   6 C        3.249     0.913    -0.000
    41   6 C        3.635     0.134    -0.000
    42   7 N        3.621     0.154    -0.000
    43   6 C        3.566     0.010    -0.000
    44   8 O        2.593     5.122    -0.001
    45   7 N        3.269     0.004    -0.000
    46   6 C        3.392     1.996    -0.000
    47   8 O        2.521    11.516    -0.002
    48   6 C        3.634     2.231    -0.000
    49   6 C        2.739     2.767    -0.000
    50   6 C        3.434     3.038    -0.000
    51   1 H        2.202     8.968    -0.012
    52   1 H        2.177    10.024    -0.013
    53   1 H        2.194    15.770    -0.021
    54   1 H        2.213    10.618    -0.014
    55   1 H        2.334     9.602    -0.013
    56   1 H        2.309     3.418    -0.005
    57   1 H        2.483     4.296    -0.006
    58   1 H        3.118     0.007    -0.000
    59   1 H        2.103    19.188    -0.026
    60   1 H        2.216     7.491    -0.010
    61   1 H        2.194     9.608    -0.013
    62   1 H        2.437     1.978    -0.003
    63  15 P        3.221     8.651    -0.001
    64   8 O        2.231    15.023    -0.002
    65   8 O        2.206    23.171    -0.003
    66   8 O        2.656     0.772    -0.000
    67   6 C        2.888     0.375    -0.000
    68   6 C        3.276     0.216    -0.000
    69   8 O        2.958     5.890    -0.001
    70   6 C        3.300     0.296    -0.000
    71   8 O        2.683     3.470    -0.000
    72   6 C        3.279     0.713    -0.000
    73   6 C        3.659     0.159    -0.000
    74   7 N        3.902     0.006    -0.000
    75   6 C        3.280     2.411    -0.000
    76   7 N        2.927    11.644    -0.004
    77   6 C        4.361     0.027    -0.000
    78   6 C        3.818     0.027    -0.000
    79   8 O        2.702     6.471    -0.001
    80   7 N        3.925     0.000     0.000
    81   6 C        4.265     0.040    -0.000
    82   7 N        2.881     1.099    -0.000
    83   7 N        3.376     4.347    -0.001
    84   6 C        4.604     0.105    -0.000
    85   1 H        2.173    11.387    -0.015
    86   1 H        2.211     9.601    -0.013
    87   1 H        2.218    15.379    -0.021
    88   1 H        2.236     9.724    -0.013
    89   1 H        2.334     8.841    -0.012
    90   1 H        2.376     1.660    -0.002
    91   1 H        2.533     4.517    -0.006
    92   1 H        2.289     8.801    -0.012
    93   1 H        3.626     0.000    -0.000
    94   1 H        2.827     1.313    -0.002
    95   1 H        2.318    20.728    -0.028
    96  15 P        3.234     9.057    -0.001
    97   8 O        2.232    14.893    -0.002
    98   8 O        2.211    23.038    -0.003
    99   8 O        2.693     0.897    -0.000
   100   6 C        2.913     0.385    -0.000
   101   6 C        3.392     0.139    -0.000
   102   8 O        3.057     5.471    -0.001
   103   6 C        3.380     0.233    -0.000
   104   8 O        2.864     0.175    -0.000
   105   6 C        3.330     1.018    -0.000
   106   6 C        3.846     0.139    -0.000
   107   7 N        4.059     0.075    -0.000
   108   6 C        3.343     3.670    -0.000
   109   7 N        2.913    12.881    -0.004
   110   6 C        4.405     0.289    -0.000
   111   6 C        3.775     0.285    -0.000
   112   8 O        2.612    12.424    -0.002
   113   7 N        3.932     0.000    -0.000
   114   6 C        4.496     0.000     0.000
   115   7 N        2.985     0.158    -0.000
   116   7 N        3.601     2.824    -0.001
   117   6 C        4.844     0.016    -0.000
   118   1 H        2.189    11.631    -0.016
   119   1 H        2.174    10.394    -0.014
   120   1 H        2.293     8.583    -0.011
   121   1 H        2.226    11.343    -0.015
   122   1 H        2.366     7.565    -0.010
   123   1 H        2.322    10.036    -0.013
   124   1 H        2.705     2.393    -0.003
   125   1 H        2.351     7.686    -0.010
   126   1 H        3.656     0.000    -0.000
   127   1 H        2.914     0.489    -0.001
   128   1 H        2.414    13.811    -0.018
   129  15 P        3.264     6.394    -0.001
   130   8 O        2.283     8.194    -0.001
   131   8 O        2.186    27.433    -0.004
   132   8 O        2.666     2.228    -0.000
   133   6 C        2.912     0.520    -0.000
   134   6 C        3.255     0.439    -0.000
   135   8 O        2.942     9.957    -0.001
   136   6 C        3.314     0.354    -0.000
   137   8 O        2.643     5.075    -0.001
   138   6 C        3.362     0.379    -0.000
   139   6 C        3.663     0.159    -0.000
   140   7 N        4.016     0.217    -0.000
   141   6 C        3.438     1.118    -0.000
   142   7 N        3.097     5.330    -0.002
   143   6 C        4.916     0.000    -0.000
   144   6 C        4.553     0.000     0.000
   145   7 N        2.939     0.120    -0.000
   146   7 N        3.810     0.000    -0.000
   147   6 C        3.482     0.641    -0.000
   148   7 N        3.138     7.015    -0.002
   149   6 C        4.690     0.468    -0.000
   150   1 H        2.251     7.457    -0.010
   151   1 H        2.146    13.248    -0.018
   152   1 H        2.183    16.162    -0.022
   153   1 H        2.284     8.184    -0.011
   154   1 H        2.416     6.356    -0.008
   155   1 H        2.473     0.623    -0.001
   156   1 H        2.499     5.827    -0.008
   157   1 H        2.402     4.796    -0.006
   158   1 H        2.415    10.068    -0.013
   159   1 H        2.849     0.971    -0.001
   160   1 H        2.404     9.204    -0.012
   161  15 P        3.220     7.169    -0.001
   162   8 O        2.223    11.327    -0.002
   163   8 O        2.206    23.762    -0.003
   164   8 O        2.651     2.384    -0.000
   165   6 C        2.886     0.466    -0.000
   166   6 C        3.345     0.192    -0.000
   167   8 O        3.073     3.557    -0.000
   168   6 C        3.354     0.139    -0.000
   169   8 O        2.775     0.985    -0.000
   170   6 C        3.334     0.672    -0.000
   171   6 C        3.805     0.186    -0.000
   172   7 N        4.088     0.000    -0.000
   173   6 C        3.358     2.102    -0.000
   174   7 N        2.956    10.883    -0.003
   175   6 C        4.502     0.074    -0.000
   176   6 C        3.819     0.127    -0.000
   177   8 O        2.646     9.737    -0.001
   178   7 N        3.856     0.008    -0.000
   179   6 C        4.286     0.004    -0.000
   180   7 N        2.889     0.267    -0.000
   181   7 N        3.518     3.096    -0.001
   182   6 C        4.868     0.011    -0.000
   183   1 H        2.199    11.109    -0.015
   184   1 H        2.131    15.117    -0.020
   185   1 H        2.246    14.441    -0.019
   186   1 H        2.241     9.637    -0.013
   187   1 H        2.351     8.760    -0.012
   188   1 H        2.403     2.190    -0.003
   189   1 H        2.633     3.642    -0.005
   190   1 H        2.321     9.816    -0.013
   191   1 H        3.594     0.020    -0.000
   192   1 H        2.784     1.037    -0.001
   193   1 H        2.361    12.686    -0.017
   194  15 P        3.254     6.411    -0.001
   195   8 O        2.233    11.767    -0.002
   196   8 O        2.230    21.963    -0.003
   197   8 O        2.669     2.267    -0.000
   198   6 C        2.884     0.434    -0.000
   199   6 C        3.307     0.138    -0.000
   200   8 O        3.003     5.096    -0.001
   201   6 C        3.390     0.008    -0.000
   202   8 O        2.656     4.687    -0.001
   203   6 C        3.397     0.055    -0.000
   204   6 C        3.642     0.076    -0.000
   205   7 N        3.833     0.000    -0.000
   206   6 C        3.749     0.043    -0.000
   207   8 O        2.771     6.719    -0.001
   208   7 N        3.709     0.006    -0.000
   209   6 C        3.968     0.042    -0.000
   210   7 N        2.770     0.717    -0.000
   211   6 C        3.515     0.725    -0.000
   212   6 C        3.523     0.029    -0.000
   213   1 H        2.187    12.110    -0.016
   214   1 H        2.136    14.994    -0.020
   215   1 H        2.223    15.725    -0.021
   216   1 H        2.360     3.566    -0.005
   217   1 H        2.581     0.060    -0.000
   218   1 H        2.431     3.488    -0.005
   219   1 H        2.410     9.219    -0.012
   220   1 H        2.652     1.660    -0.002
   221   1 H        2.290    15.244    -0.020
   222   1 H        2.275     9.590    -0.013
   223   1 H        2.458     0.988    -0.001
   224  15 P        3.240     7.274    -0.001
   225   8 O        2.227    11.278    -0.002
   226   8 O        2.219    21.555    -0.003
   227   8 O        2.727     0.522    -0.000
   228   6 C        2.917     0.518    -0.000
   229   6 C        3.333     0.224    -0.000
   230   8 O        3.042     5.933    -0.001
   231   6 C        3.391     0.082    -0.000
   232   8 O        2.724     2.908    -0.000
   233   6 C        3.348     0.566    -0.000
   234   6 C        3.691     0.151    -0.000
   235   7 N        3.693     0.191    -0.000
   236   6 C        3.518     0.815    -0.000
   237   8 O        2.519    10.706    -0.001
   238   7 N        3.289     0.015    -0.000
   239   6 C        3.582     0.003    -0.000
   240   8 O        2.696     4.350    -0.001
   241   6 C        3.859     0.002    -0.000
   242   6 C        2.807     2.117    -0.000
   243   6 C        3.568     0.063    -0.000
   244   1 H        2.211    10.615    -0.014
   245   1 H        2.158    12.600    -0.017
   246   1 H        2.217    15.659    -0.021
   247   1 H        2.332     5.306    -0.007
   248   1 H        2.400     5.858    -0.008
   249   1 H        2.441     0.345    -0.000
   250   1 H        2.468     5.976    -0.008
   251   1 H        3.101     0.086    -0.000
   252   1 H        2.257     6.101    -0.008
   253   1 H        2.197    10.384    -0.014
   254   1 H        2.211     9.380    -0.013
   255   1 H        2.470     1.659    -0.002
   256  15 P        3.202     9.729    -0.001
   257   8 O        2.186    24.482    -0.003
   258   8 O        2.233    15.069    -0.002
   259   8 O        2.602     2.588    -0.000
   260   6 C        2.836     0.429    -0.000
   261   6 C        3.193     0.279    -0.000
   262   8 O        2.942     3.835    -0.001
   263   6 C        3.105     0.650    -0.000
   264   8 O        2.290    13.987    -0.002
   265   6 C        3.132     0.839    -0.000
   266   6 C        3.465     0.204    -0.000
   267   7 N        3.413     0.597    -0.000
   268   6 C        3.357     3.578    -0.000
   269   8 O        2.582     8.980    -0.001
   270   7 N        3.287     2.003    -0.001
   271   6 C        3.496     3.639    -0.000
   272   7 N        2.598     3.474    -0.001
   273   6 C        3.133     4.405    -0.000
   274   6 C        3.171     3.430    -0.000
   275   1 H        2.181    10.536    -0.014
   276   1 H        2.103    15.626    -0.021
   277   1 H        2.163    15.964    -0.021
   278   1 H        2.146    14.568    -0.019
   279   1 H        1.953    19.424    -0.026
   280   1 H        2.318     6.803    -0.009
   281   1 H        2.169    14.410    -0.019
   282   1 H        2.369    10.468    -0.014
   283   1 H        2.489     4.094    -0.005
   284   1 H        2.181    15.444    -0.021
   285   1 H        2.110    17.550    -0.023
   286   1 H        2.251     9.691    -0.013
   287   8 O        2.305    11.490    -0.002
   288   6 C        2.734     1.605    -0.000
   289   6 C        3.156     0.287    -0.000
   290   8 O        2.816    10.715    -0.001
   291   6 C        3.224     0.373    -0.000
   292   8 O        2.635     4.068    -0.001
   293   6 C        3.237     0.484    -0.000
   294   6 C        3.495     0.150    -0.000
   295   7 N        3.596     0.299    -0.000
   296   6 C        3.071     7.383    -0.000
   297   7 N        2.705    17.360    -0.005
   298   6 C        3.760     3.269    -0.000
   299   6 C        3.314     4.270    -0.000
   300   8 O        2.489    13.380    -0.002
   301   7 N        3.292     1.857    -0.001
   302   6 C        3.635     3.939    -0.000
   303   7 N        2.647     3.937    -0.001
   304   7 N        3.093     6.857    -0.002
   305   6 C        4.032     3.111    -0.000
   306   1 H        2.056    19.311    -0.026
   307   1 H        2.079    16.899    -0.023
   308   1 H        2.153    16.197    -0.022
   309   1 H        2.206     9.950    -0.013
   310   1 H        2.337     8.319    -0.011
   311   1 H        2.399     1.704    -0.002
   312   1 H        2.440     5.433    -0.007
   313   1 H        2.231     9.601    -0.013
   314   1 H        3.064     1.236    -0.002
   315   1 H        2.482     5.101    -0.007
   316   1 H        2.208    19.814    -0.026
   317   1 H        2.009    12.713    -0.017
   318  15 P        3.228     6.063    -0.001
   319   8 O        2.229    10.500    -0.001
   320   8 O        2.222    21.639    -0.003
   321   8 O        2.664     0.571    -0.000
   322   6 C        2.864     0.414    -0.000
   323   6 C        3.228     0.278    -0.000
   324   8 O        2.893     9.585    -0.001
   325   6 C        3.256     0.351    -0.000
   326   8 O        2.634     4.572    -0.001
   327   6 C        3.323     0.484    -0.000
   328   6 C        3.600     0.169    -0.000
   329   7 N        3.902     0.154    -0.000
   330   6 C        3.378     1.392    -0.000
   331   7 N        3.004     7.566    -0.002
   332   6 C        4.598     0.004    -0.000
   333   6 C        4.248     0.000    -0.000
   334   7 N        2.872     0.115    -0.000
   335   7 N        3.590     0.019    -0.000
   336   6 C        3.281     1.131    -0.000
   337   7 N        3.000     8.504    -0.003
   338   6 C        4.390     1.247    -0.000
   339   1 H        2.157    12.520    -0.017
   340   1 H        2.146    12.602    -0.017
   341   1 H        2.173    16.102    -0.022
   342   1 H        2.220    10.449    -0.014
   343   1 H        2.422     7.138    -0.010
   344   1 H        2.383     1.710    -0.002
   345   1 H        2.453     4.789    -0.006
   346   1 H        2.400     5.480    -0.007
   347   1 H        2.385     8.956    -0.012
   348   1 H        2.815     0.426    -0.001
   349   1 H        2.304    12.968    -0.017
   350  15 P        3.201     9.548    -0.001
   351   8 O        2.219    15.080    -0.002
   352   8 O        2.190    24.183    -0.003
   353   8 O        2.631     2.793    -0.000
   354   6 C        2.867     0.398    -0.000
   355   6 C        3.288     0.136    -0.000
   356   8 O        3.032     2.656    -0.000
   357   6 C        3.271     0.194    -0.000
   358   8 O        2.665     3.893    -0.001
   359   6 C        3.307     0.381    -0.000
   360   6 C        3.703     0.203    -0.000
   361   7 N        3.981     0.000    -0.000
   362   6 C        3.298     2.119    -0.000
   363   7 N        2.910    11.398    -0.003
   364   6 C        4.371     0.040    -0.000
   365   6 C        3.737     0.070    -0.000
   366   8 O        2.621     9.549    -0.001
   367   7 N        3.771     0.004    -0.000
   368   6 C        4.197     0.004    -0.000
   369   7 N        2.868     0.275    -0.000
   370   7 N        3.456     2.483    -0.001
   371   6 C        4.720     0.015    -0.000
   372   1 H        2.186    10.648    -0.014
   373   1 H        2.144    12.811    -0.017
   374   1 H        2.237    14.083    -0.019
   375   1 H        2.214    10.752    -0.014
   376   1 H        2.334     9.393    -0.013
   377   1 H        2.429     1.458    -0.002
   378   1 H        2.561     4.731    -0.006
   379   1 H        2.288     9.944    -0.013
   380   1 H        3.505     0.029    -0.000
   381   1 H        2.766     1.178    -0.002
   382   1 H        2.348    12.012    -0.016
   383  15 P        3.241     9.109    -0.001
   384   8 O        2.238    14.785    -0.002
   385   8 O        2.211    23.461    -0.003
   386   8 O        2.706     1.525    -0.000
   387   6 C        2.920     0.431    -0.000
   388   6 C        3.325     0.156    -0.000
   389   8 O        3.054     3.810    -0.001
   390   6 C        3.435     0.046    -0.000
   391   8 O        2.652     5.449    -0.001
   392   6 C        3.418     0.154    -0.000
   393   6 C        3.716     0.058    -0.000
   394   7 N        3.971     0.000     0.000
   395   6 C        3.837     0.005    -0.000
   396   8 O        2.819     5.950    -0.001
   397   7 N        3.776     0.000    -0.000
   398   6 C        3.956     0.158    -0.000
   399   7 N        2.753     1.225    -0.000
   400   6 C        3.496     0.820    -0.000
   401   6 C        3.573     0.154    -0.000
   402   1 H        2.195    11.399    -0.015
   403   1 H        2.207     9.807    -0.013
   404   1 H        2.226    15.650    -0.021
   405   1 H        2.414     3.187    -0.004
   406   1 H        2.589     0.129    -0.000
   407   1 H        2.366     6.246    -0.008
   408   1 H        2.433     8.313    -0.011
   409   1 H        2.693     1.140    -0.002
   410   1 H        2.263    17.110    -0.023
   411   1 H        2.243    10.771    -0.014
   412   1 H        2.496     1.612    -0.002
   413  15 P        3.271     9.220    -0.001
   414   8 O        2.237    14.983    -0.002
   415   8 O        2.244    18.085    -0.002
   416   8 O        2.766     0.276    -0.000
   417   6 C        2.929     0.419    -0.000
   418   6 C        3.268     0.268    -0.000
   419   8 O        2.915     8.821    -0.001
   420   6 C        3.304     0.263    -0.000
   421   8 O        2.636     4.873    -0.001
   422   6 C        3.383     0.192    -0.000
   423   6 C        3.670     0.166    -0.000
   424   7 N        3.706     0.342    -0.000
   425   6 C        3.613     1.220    -0.000
   426   8 O        2.569    10.458    -0.001
   427   7 N        3.366     0.000    -0.000
   428   6 C        3.657     0.001    -0.000
   429   8 O        2.770     3.400    -0.000
   430   6 C        3.862     0.068    -0.000
   431   6 C        2.805     2.642    -0.000
   432   6 C        3.562     0.480    -0.000
   433   1 H        2.201    10.438    -0.014
   434   1 H        2.216     9.185    -0.012
   435   1 H        2.190    15.926    -0.021
   436   1 H        2.266     8.836    -0.012
   437   1 H        2.429     6.325    -0.008
   438   1 H        2.524     0.333    -0.000
   439   1 H        2.518     3.912    -0.005
   440   1 H        3.084     0.000    -0.000
   441   1 H        2.165    13.888    -0.019
   442   1 H        2.209     8.017    -0.011
   443   1 H        2.282     5.391    -0.007
   444   1 H        2.503     1.675    -0.002
   445  15 P        3.224     9.508    -0.001
   446   8 O        2.216    15.036    -0.002
   447   8 O        2.210    23.153    -0.003
   448   8 O        2.667     2.728    -0.000
   449   6 C        2.893     0.408    -0.000
   450   6 C        3.312     0.141    -0.000
   451   8 O        3.128     1.330    -0.000
   452   6 C        3.310     0.088    -0.000
   453   8 O        2.668     4.066    -0.001
   454   6 C        3.334     0.285    -0.000
   455   6 C        3.699     0.052    -0.000
   456   7 N        3.805     0.002    -0.000
   457   6 C        3.732     0.035    -0.000
   458   8 O        2.764     6.173    -0.001
   459   7 N        3.736     0.000    -0.000
   460   6 C        3.930     0.017    -0.000
   461   7 N        2.746     0.586    -0.000
   462   6 C        3.405     0.625    -0.000
   463   6 C        3.467     0.756    -0.000
   464   1 H        2.207    10.649    -0.014
   465   1 H        2.155    11.542    -0.015
   466   1 H        2.239    14.703    -0.020
   467   1 H        2.256     8.538    -0.011
   468   1 H        2.386     6.107    -0.008
   469   1 H        2.437     0.221    -0.000
   470   1 H        2.447     7.883    -0.011
   471   1 H        2.689     1.125    -0.002
   472   1 H        2.261    15.147    -0.020
   473   1 H        2.195    14.430    -0.019
   474   1 H        2.386     5.689    -0.008
   475  15 P        3.228     8.147    -0.001
   476   8 O        2.234    13.791    -0.002
   477   8 O        2.208    23.807    -0.003
   478   8 O        2.673     0.933    -0.000
   479   6 C        2.894     0.402    -0.000
   480   6 C        3.279     0.250    -0.000
   481   8 O        2.991     6.922    -0.001
   482   6 C        3.288     0.323    -0.000
   483   8 O        2.671     4.138    -0.001
   484   6 C        3.258     0.697    -0.000
   485   6 C        3.665     0.026    -0.000
   486   7 N        3.653     0.125    -0.000
   487   6 C        3.659     0.396    -0.000
   488   8 O        2.771     5.877    -0.001
   489   7 N        3.659     0.000    -0.000
   490   6 C        3.894     0.005    -0.000
   491   7 N        2.793     0.250    -0.000
   492   6 C        3.350     1.330    -0.000
   493   6 C        3.339     1.310    -0.000
   494   1 H        2.184    11.556    -0.015
   495   1 H        2.168    10.900    -0.015
   496   1 H        2.206    15.784    -0.021
   497   1 H        2.224    10.263    -0.014
   498   1 H        2.345     8.406    -0.011
   499   1 H        2.329     3.323    -0.004
   500   1 H        2.549     2.082    -0.003
   501   1 H        2.746     1.198    -0.002
   502   1 H        2.299    13.008    -0.017
   503   1 H        2.185    13.984    -0.019
   504   1 H        2.311     8.015    -0.011
   505  15 P        3.215     7.595    -0.001
   506   8 O        2.219    11.602    -0.002
   507   8 O        2.204    23.267    -0.003
   508   8 O        2.678     1.164    -0.000
   509   6 C        2.894     0.538    -0.000
   510   6 C        3.391     0.122    -0.000
   511   8 O        3.081     3.052    -0.000
   512   6 C        3.311     0.120    -0.000
   513   8 O        2.679     5.084    -0.001
   514   6 C        3.333     0.418    -0.000
   515   6 C        3.788     0.142    -0.000
   516   7 N        4.026     0.000    -0.000
   517   6 C        3.338     0.575    -0.000
   518   7 N        2.936     8.892    -0.003
   519   6 C        4.575     0.000    -0.000
   520   6 C        4.115     0.001    -0.000
   521   7 N        2.747     0.283    -0.000
   522   7 N        3.694     0.007    -0.000
   523   6 C        3.581     0.094    -0.000
   524   7 N        3.252     2.338    -0.001
   525   6 C        4.687     0.016    -0.000
   526   1 H        2.212    10.046    -0.013
   527   1 H        2.144    14.243    -0.019
   528   1 H        2.315    10.279    -0.014
   529   1 H        2.240    11.530    -0.015
   530   1 H        2.365     7.498    -0.010
   531   1 H        2.427     0.458    -0.001
   532   1 H        2.706     1.521    -0.002
   533   1 H        2.314     8.729    -0.012
   534   1 H        2.281    13.293    -0.018
   535   1 H        2.574     2.451    -0.003
   536   1 H        2.580     4.258    -0.006
   537  15 P        3.234     7.547    -0.001
   538   8 O        2.225    11.247    -0.002
   539   8 O        2.212    22.956    -0.003
   540   8 O        2.722     0.436    -0.000
   541   6 C        2.929     0.517    -0.000
   542   6 C        3.287     0.303    -0.000
   543   8 O        3.150     1.639    -0.000
   544   6 C        3.156     0.605    -0.000
   545   8 O        2.316    13.211    -0.002
   546   6 C        3.107     1.411    -0.000
   547   6 C        3.591     0.027    -0.000
   548   7 N        3.532     0.640    -0.000
   549   6 C        3.410     4.127    -0.000
   550   8 O        2.494    11.626    -0.002
   551   7 N        3.140     1.666    -0.001
   552   6 C        3.301     3.537    -0.000
   553   8 O        2.471    13.226    -0.002
   554   6 C        3.559     2.003    -0.000
   555   6 C        2.686     2.889    -0.000
   556   6 C        3.363     3.245    -0.000
   557   1 H        2.254     7.179    -0.010
   558   1 H        2.155    12.800    -0.017
   559   1 H        2.194    16.761    -0.022
   560   1 H        2.170    13.441    -0.018
   561   1 H        1.946    20.944    -0.028
   562   1 H        2.270     9.622    -0.013
   563   1 H        2.155    16.624    -0.022
   564   1 H        2.467     8.122    -0.011
   565   1 H        2.978     0.866    -0.001
   566   1 H        2.128    13.154    -0.018
   567   1 H        2.075    19.044    -0.025
   568   1 H        2.154    10.822    -0.014
   569   1 H        2.381     2.635    -0.004
   570   1 H        1.989    14.968    -0.020
   571   1 H        1.898    23.825    -0.032
   572   1 H        1.910    22.932    -0.031
   573   1 H        1.894    23.964    -0.032
   574   1 H        1.951    17.730    -0.024
   575   1 H        1.959    15.950    -0.021
   576   1 H        1.982    15.037    -0.020
   577   1 H        1.949    16.500    -0.022
   578   1 H        1.892    23.958    -0.032
   579   1 H        1.892    23.784    -0.032
   580   1 H        1.929    18.797    -0.025
   581   1 H        1.941    17.066    -0.023
   582   1 H        1.973    15.322    -0.020
   583   1 H        1.978    15.696    -0.021
   584   1 H        1.958    15.414    -0.021
   585   1 H        1.895    23.895    -0.032

 total SASA / Å² :     3537.483

     #   Z          covCN         q      C6AA      α(0)
     1   8 O        1.654    -0.488    22.636     6.423
     2   6 C        3.672     0.058    19.832     6.383
     3   6 C        3.784     0.091    19.086     6.223
     4   8 O        1.699    -0.317    19.302     5.932
     5   6 C        3.941     0.116    18.622     6.132
     6   8 O        1.657    -0.339    19.705     5.992
     7   6 C        3.824    -0.089    22.171     6.700
     8   6 C        3.722     0.172    17.943     6.050
     9   7 N        2.831    -0.067    22.531     7.050
    10   6 C        3.152     0.100    25.510     8.260
    11   7 N        1.867    -0.288    28.321     7.888
    12   6 C        3.213     0.010    27.137     8.477
    13   6 C        2.907     0.176    24.228     8.071
    14   7 N        2.672    -0.251    26.519     7.648
    15   7 N        1.869    -0.331    29.442     8.043
    16   6 C        2.930     0.146    24.818     8.170
    17   7 N        1.827    -0.340    29.665     8.071
    18   6 C        3.146     0.134    24.827     8.152
    19   1 H        0.925     0.068     2.113     2.273
    20   1 H        0.924     0.053     2.287     2.365
    21   1 H        0.924     0.081     1.968     2.194
    22   1 H        0.924     0.070     2.089     2.260
    23   1 H        0.924     0.090     1.879     2.144
    24   1 H        0.925     0.062     2.181     2.309
    25   1 H        0.925     0.064     2.150     2.293
    26   1 H        0.926     0.087     1.910     2.161
    27   1 H        0.860     0.241     0.920     1.503
    28   1 H        0.860     0.238     0.933     1.513
    29   1 H        0.926     0.025     2.656     2.549
    30   1 H        0.805     0.353     0.582     1.198
    31  15 P        3.740     0.733   131.582    20.606
    32   8 O        1.614    -0.381    20.504     6.112
    33   8 O        0.808    -0.569    25.389     6.754
    34   8 O        1.656    -0.346    19.834     6.012
    35   6 C        3.895     0.055    19.600     6.293
    36   6 C        3.793     0.087    19.148     6.232
    37   8 O        1.700    -0.310    19.162     5.910
    38   6 C        3.931     0.111    18.710     6.147
    39   8 O        1.656    -0.331    19.565     5.971
    40   6 C        3.825    -0.090    22.193     6.704
    41   6 C        3.743     0.173    17.892     6.034
    42   7 N        2.738    -0.070    22.596     7.060
    43   6 C        2.700     0.328    21.427     7.576
    44   8 O        0.858    -0.488    23.527     6.503
    45   7 N        2.697    -0.191    25.137     7.446
    46   6 C        2.761     0.277    22.323     7.737
    47   8 O        0.859    -0.459    22.889     6.414
    48   6 C        2.951    -0.038    28.933     8.822
    49   6 C        3.755    -0.125    22.947     6.830
    50   6 C        2.850     0.023    27.476     8.591
    51   1 H        0.924     0.094     1.836     2.119
    52   1 H        0.924     0.075     2.035     2.231
    53   1 H        0.924     0.103     1.757     2.073
    54   1 H        0.924     0.077     2.012     2.218
    55   1 H        0.925     0.087     1.907     2.160
    56   1 H        0.925     0.066     2.129     2.282
    57   1 H        0.925     0.067     2.115     2.274
    58   1 H        0.860     0.240     0.923     1.505
    59   1 H        0.924     0.090     1.881     2.145
    60   1 H        0.925     0.074     2.045     2.236
    61   1 H        0.925     0.070     2.083     2.257
    62   1 H        0.926     0.098     1.800     2.098
    63  15 P        3.714     0.731   131.644    20.611
    64   8 O        1.614    -0.376    20.406     6.097
    65   8 O        0.808    -0.569    25.406     6.757
    66   8 O        1.656    -0.350    19.900     6.022
    67   6 C        3.885     0.051    19.665     6.305
    68   6 C        3.795     0.089    19.108     6.225
    69   8 O        1.700    -0.317    19.286     5.929
    70   6 C        3.926     0.111    18.706     6.147
    71   8 O        1.657    -0.334    19.608     5.978
    72   6 C        3.821    -0.086    22.113     6.692
    73   6 C        3.735     0.172    17.924     6.042
    74   7 N        2.819    -0.066    22.518     7.048
    75   6 C        3.146     0.100    25.545     8.269
    76   7 N        1.872    -0.298    28.587     7.925
    77   6 C        3.195    -0.004    27.604     8.566
    78   6 C        2.773     0.262    22.577     7.782
    79   8 O        0.860    -0.502    23.830     6.545
    80   7 N        2.721    -0.204    25.421     7.488
    81   6 C        2.840     0.248    22.856     7.835
    82   7 N        2.672    -0.276    27.136     7.737
    83   7 N        1.846    -0.366    30.393     8.170
    84   6 C        3.099     0.134    24.969     8.189
    85   1 H        0.924     0.093     1.850     2.127
    86   1 H        0.924     0.079     1.992     2.207
    87   1 H        0.924     0.103     1.756     2.073
    88   1 H        0.924     0.070     2.081     2.256
    89   1 H        0.925     0.074     2.047     2.237
    90   1 H        0.925     0.067     2.117     2.275
    91   1 H        0.925     0.071     2.079     2.255
    92   1 H        0.926     0.050     2.322     2.383
    93   1 H        0.860     0.235     0.944     1.522
    94   1 H        0.860     0.249     0.886     1.475
    95   1 H        0.860     0.258     0.854     1.448
    96  15 P        3.736     0.740   131.361    20.588
    97   8 O        1.614    -0.382    20.522     6.114
    98   8 O        0.808    -0.575    25.546     6.775
    99   8 O        1.657    -0.342    19.762     6.001
   100   6 C        3.908     0.046    19.750     6.317
   101   6 C        3.847     0.088    19.088     6.215
   102   8 O        1.703    -0.308    19.126     5.905
   103   6 C        3.972     0.109    18.722     6.148
   104   8 O        1.659    -0.339    19.711     5.993
   105   6 C        3.839    -0.092    22.227     6.707
   106   6 C        3.789     0.174    17.831     6.014
   107   7 N        2.835    -0.056    22.311     7.015
   108   6 C        3.164     0.093    25.610     8.271
   109   7 N        1.870    -0.303    28.696     7.940
   110   6 C        3.213    -0.012    27.636     8.555
   111   6 C        2.774     0.265    22.534     7.775
   112   8 O        0.860    -0.497    23.714     6.529
   113   7 N        2.716    -0.201    25.371     7.481
   114   6 C        2.850     0.247    22.869     7.838
   115   7 N        2.674    -0.270    26.986     7.715
   116   7 N        1.852    -0.370    30.508     8.186
   117   6 C        3.118     0.131    24.978     8.186
   118   1 H        0.924     0.099     1.795     2.095
   119   1 H        0.924     0.086     1.918     2.166
   120   1 H        0.925     0.090     1.880     2.144
   121   1 H        0.924     0.067     2.122     2.278
   122   1 H        0.925     0.080     1.984     2.202
   123   1 H        0.925     0.085     1.932     2.174
   124   1 H        0.924     0.063     2.167     2.302
   125   1 H        0.926     0.055     2.262     2.352
   126   1 H        0.860     0.240     0.922     1.504
   127   1 H        0.860     0.245     0.903     1.489
   128   1 H        0.860     0.244     0.907     1.492
   129  15 P        3.755     0.746   131.153    20.572
   130   8 O        1.614    -0.393    20.739     6.146
   131   8 O        0.808    -0.582    25.703     6.796
   132   8 O        1.656    -0.343    19.775     6.003
   133   6 C        3.897     0.044    19.776     6.321
   134   6 C        3.779     0.085    19.201     6.243
   135   8 O        1.700    -0.315    19.254     5.924
   136   6 C        3.937     0.112    18.691     6.144
   137   8 O        1.656    -0.335    19.624     5.980
   138   6 C        3.823    -0.088    22.167     6.700
   139   6 C        3.705     0.166    18.073     6.078
   140   7 N        2.821    -0.074    22.678     7.073
   141   6 C        3.145     0.107    25.402     8.246
   142   7 N        1.866    -0.309    28.860     7.963
   143   6 C        3.206     0.019    26.980     8.459
   144   6 C        2.915     0.177    24.203     8.067
   145   7 N        2.673    -0.272    27.023     7.721
   146   7 N        1.867    -0.334    29.527     8.055
   147   6 C        2.926     0.141    24.922     8.187
   148   7 N        1.826    -0.323    29.229     8.011
   149   6 C        3.121     0.138    24.830     8.161
   150   1 H        0.924     0.089     1.885     2.147
   151   1 H        0.925     0.092     1.864     2.135
   152   1 H        0.924     0.114     1.660     2.015
   153   1 H        0.925     0.074     2.039     2.233
   154   1 H        0.924     0.068     2.102     2.268
   155   1 H        0.925     0.076     2.026     2.226
   156   1 H        0.925     0.085     1.930     2.173
   157   1 H        0.926     0.063     2.159     2.298
   158   1 H        0.860     0.200     1.106     1.647
   159   1 H        0.860     0.247     0.894     1.481
   160   1 H        0.926     0.054     2.273     2.358
   161  15 P        3.785     0.738   131.414    20.593
   162   8 O        1.614    -0.383    20.539     6.117
   163   8 O        0.808    -0.597    26.078     6.845
   164   8 O        1.657    -0.321    19.373     5.942
   165   6 C        3.936     0.051    19.660     6.301
   166   6 C        3.821     0.087    19.120     6.223
   167   8 O        1.701    -0.322    19.386     5.945
   168   6 C        3.950     0.109    18.733     6.150
   169   8 O        1.659    -0.346    19.829     6.011
   170   6 C        3.829    -0.092    22.234     6.709
   171   6 C        3.766     0.167    17.955     6.039
   172   7 N        2.823    -0.067    22.538     7.051
   173   6 C        3.154     0.086    25.810     8.308
   174   7 N        1.872    -0.295    28.495     7.913
   175   6 C        3.199    -0.010    27.696     8.577
   176   6 C        2.772     0.266    22.517     7.772
   177   8 O        0.859    -0.507    23.945     6.561
   178   7 N        2.713    -0.201    25.360     7.479
   179   6 C        2.854     0.249    22.839     7.833
   180   7 N        2.676    -0.266    26.879     7.700
   181   7 N        1.858    -0.365    30.360     8.167
   182   6 C        3.124     0.128    25.032     8.193
   183   1 H        0.924     0.091     1.870     2.139
   184   1 H        0.924     0.095     1.833     2.117
   185   1 H        0.924     0.096     1.824     2.112
   186   1 H        0.925     0.070     2.080     2.255
   187   1 H        0.924     0.079     1.990     2.206
   188   1 H        0.925     0.077     2.012     2.218
   189   1 H        0.924     0.075     2.032     2.229
   190   1 H        0.926     0.065     2.146     2.291
   191   1 H        0.861     0.234     0.950     1.527
   192   1 H        0.860     0.241     0.921     1.503
   193   1 H        0.860     0.247     0.896     1.483
   194  15 P        3.759     0.752   130.939    20.555
   195   8 O        1.614    -0.392    20.724     6.144
   196   8 O        0.808    -0.592    25.942     6.827
   197   8 O        1.657    -0.319    19.350     5.938
   198   6 C        3.920     0.051    19.662     6.302
   199   6 C        3.788     0.088    19.137     6.231
   200   8 O        1.700    -0.311    19.194     5.915
   201   6 C        3.930     0.106    18.779     6.158
   202   8 O        1.657    -0.332    19.575     5.973
   203   6 C        3.823    -0.096    22.310     6.721
   204   6 C        3.710     0.164    18.078     6.076
   205   7 N        2.738    -0.088    22.959     7.116
   206   6 C        2.753     0.326    21.458     7.585
   207   8 O        0.862    -0.516    24.133     6.586
   208   7 N        1.863    -0.372    30.560     8.194
   209   6 C        2.880     0.196    23.825     8.002
   210   7 N        2.672    -0.241    26.292     7.615
   211   6 C        2.912    -0.101    30.553     9.064
   212   6 C        2.859     0.040    27.092     8.531
   213   1 H        0.924     0.092     1.860     2.133
   214   1 H        0.924     0.091     1.867     2.137
   215   1 H        0.924     0.097     1.813     2.106
   216   1 H        0.924     0.070     2.089     2.260
   217   1 H        0.925     0.069     2.096     2.264
   218   1 H        0.925     0.093     1.849     2.126
   219   1 H        0.925     0.087     1.911     2.162
   220   1 H        0.860     0.228     0.974     1.546
   221   1 H        0.860     0.231     0.963     1.537
   222   1 H        0.926     0.079     1.994     2.208
   223   1 H        0.926     0.099     1.798     2.097
   224  15 P        3.739     0.740   131.352    20.588
   225   8 O        1.614    -0.383    20.551     6.119
   226   8 O        0.808    -0.595    26.027     6.839
   227   8 O        1.657    -0.314    19.253     5.923
   228   6 C        3.895     0.047    19.742     6.316
   229   6 C        3.814     0.089    19.093     6.219
   230   8 O        1.702    -0.310    19.174     5.912
   231   6 C        3.959     0.100    18.871     6.173
   232   8 O        1.659    -0.342    19.750     5.999
   233   6 C        3.819    -0.100    22.396     6.735
   234   6 C        3.770     0.171    17.899     6.029
   235   7 N        2.737    -0.074    22.668     7.071
   236   6 C        2.701     0.325    21.483     7.586
   237   8 O        0.859    -0.477    23.284     6.469
   238   7 N        2.696    -0.189    25.101     7.441
   239   6 C        2.761     0.277    22.322     7.737
   240   8 O        0.859    -0.462    22.950     6.423
   241   6 C        2.950    -0.041    29.008     8.834
   242   6 C        3.756    -0.130    23.055     6.846
   243   6 C        2.848     0.012    27.748     8.633
   244   1 H        0.925     0.085     1.928     2.171
   245   1 H        0.924     0.092     1.860     2.133
   246   1 H        0.924     0.095     1.828     2.114
   247   1 H        0.925     0.072     2.064     2.247
   248   1 H        0.925     0.098     1.808     2.102
   249   1 H        0.925     0.088     1.901     2.156
   250   1 H        0.925     0.078     2.003     2.213
   251   1 H        0.860     0.240     0.923     1.505
   252   1 H        0.925     0.067     2.121     2.278
   253   1 H        0.924     0.082     1.961     2.190
   254   1 H        0.925     0.092     1.861     2.133
   255   1 H        0.926     0.116     1.643     2.004
   256  15 P        3.762     0.752   130.920    20.554
   257   8 O        0.808    -0.591    25.938     6.827
   258   8 O        1.614    -0.382    20.525     6.115
   259   8 O        1.656    -0.326    19.467     5.956
   260   6 C        3.911     0.066    19.423     6.264
   261   6 C        3.820     0.096    18.981     6.200
   262   8 O        1.703    -0.335    19.618     5.980
   263   6 C        3.759     0.105    18.898     6.197
   264   8 O        1.655    -0.490    22.669     6.427
   265   6 C        3.838    -0.097    22.322     6.721
   266   6 C        3.766     0.182    17.731     6.002
   267   7 N        2.738    -0.096    23.119     7.141
   268   6 C        2.757     0.332    21.354     7.567
   269   8 O        0.862    -0.533    24.536     6.641
   270   7 N        1.872    -0.373    30.590     8.198
   271   6 C        2.885     0.192    23.915     8.017
   272   7 N        2.679    -0.244    26.355     7.625
   273   6 C        2.911    -0.105    30.647     9.078
   274   6 C        2.859     0.029    27.350     8.572
   275   1 H        0.924     0.068     2.108     2.270
   276   1 H        0.924     0.074     2.040     2.234
   277   1 H        0.924     0.077     2.014     2.219
   278   1 H        0.924     0.057     2.235     2.338
   279   1 H        0.805     0.355     0.577     1.193
   280   1 H        0.924     0.077     2.015     2.220
   281   1 H        0.924     0.078     2.004     2.214
   282   1 H        0.924     0.059     2.215     2.327
   283   1 H        0.860     0.243     0.913     1.496
   284   1 H        0.860     0.237     0.937     1.516
   285   1 H        0.926     0.106     1.733     2.059
   286   1 H        0.926     0.104     1.750     2.069
   287   8 O        1.654    -0.464    22.141     6.352
   288   6 C        3.672     0.053    19.923     6.397
   289   6 C        3.781     0.084    19.209     6.244
   290   8 O        1.699    -0.317    19.301     5.931
   291   6 C        3.915     0.114    18.666     6.141
   292   8 O        1.657    -0.335    19.637     5.982
   293   6 C        3.821    -0.087    22.133     6.695
   294   6 C        3.710     0.176    17.913     6.049
   295   7 N        2.816    -0.069    22.566     7.055
   296   6 C        3.152     0.098    25.563     8.269
   297   7 N        1.866    -0.288    28.330     7.890
   298   6 C        3.209    -0.008    27.580     8.550
   299   6 C        2.773     0.265    22.522     7.773
   300   8 O        0.860    -0.496    23.702     6.527
   301   7 N        2.718    -0.193    25.183     7.453
   302   6 C        2.835     0.243    22.932     7.848
   303   7 N        2.668    -0.275    27.107     7.733
   304   7 N        1.843    -0.376    30.674     8.208
   305   6 C        3.083     0.128    25.119     8.216
   306   1 H        0.925     0.089     1.888     2.149
   307   1 H        0.925     0.056     2.244     2.342
   308   1 H        0.924     0.083     1.946     2.181
   309   1 H        0.924     0.063     2.167     2.302
   310   1 H        0.925     0.079     1.990     2.206
   311   1 H        0.925     0.064     2.157     2.297
   312   1 H        0.924     0.055     2.258     2.350
   313   1 H        0.926     0.071     2.072     2.251
   314   1 H        0.860     0.240     0.923     1.505
   315   1 H        0.860     0.249     0.887     1.475
   316   1 H        0.860     0.241     0.917     1.500
   317   1 H        0.805     0.323     0.657     1.273
   318  15 P        3.732     0.728   131.770    20.620
   319   8 O        1.614    -0.391    20.690     6.139
   320   8 O        0.808    -0.598    26.092     6.847
   321   8 O        1.656    -0.331    19.557     5.970
   322   6 C        3.905     0.054    19.609     6.294
   323   6 C        3.802     0.087    19.145     6.229
   324   8 O        1.700    -0.313    19.225     5.920
   325   6 C        3.912     0.114    18.666     6.141
   326   8 O        1.657    -0.331    19.562     5.971
   327   6 C        3.839    -0.086    22.119     6.691
   328   6 C        3.721     0.170    17.971     6.054
   329   7 N        2.834    -0.067    22.541     7.051
   330   6 C        3.182     0.109    25.194     8.193
   331   7 N        1.867    -0.306    28.788     7.953
   332   6 C        3.241     0.018    26.677     8.374
   333   6 C        2.906     0.175    24.247     8.074
   334   7 N        2.664    -0.268    26.929     7.707
   335   7 N        1.858    -0.328    29.367     8.032
   336   6 C        2.925     0.141    24.924     8.187
   337   7 N        1.826    -0.319    29.107     7.994
   338   6 C        3.140     0.139    24.760     8.143
   339   1 H        0.924     0.090     1.880     2.144
   340   1 H        0.925     0.082     1.957     2.187
   341   1 H        0.924     0.105     1.744     2.065
   342   1 H        0.924     0.066     2.131     2.283
   343   1 H        0.925     0.074     2.041     2.234
   344   1 H        0.925     0.069     2.102     2.267
   345   1 H        0.924     0.081     1.965     2.192
   346   1 H        0.926     0.055     2.254     2.348
   347   1 H        0.860     0.207     1.072     1.622
   348   1 H        0.860     0.240     0.925     1.506
   349   1 H        0.926     0.062     2.179     2.309
   350  15 P        3.724     0.730   131.698    20.615
   351   8 O        1.614    -0.375    20.387     6.094
   352   8 O        0.808    -0.573    25.482     6.767
   353   8 O        1.657    -0.338    19.692     5.991
   354   6 C        3.903     0.050    19.686     6.307
   355   6 C        3.804     0.090    19.082     6.219
   356   8 O        1.701    -0.317    19.293     5.930
   357   6 C        3.897     0.107    18.770     6.159
   358   8 O        1.656    -0.328    19.499     5.961
   359   6 C        3.823    -0.091    22.220     6.708
   360   6 C        3.740     0.167    17.992     6.052
   361   7 N        2.820    -0.067    22.544     7.052
   362   6 C        3.135     0.089    25.807     8.315
   363   7 N        1.868    -0.293    28.454     7.907
   364   6 C        3.191    -0.010    27.770     8.595
   365   6 C        2.773     0.265    22.524     7.773
   366   8 O        0.860    -0.505    23.888     6.553
   367   7 N        2.716    -0.199    25.319     7.473
   368   6 C        2.839     0.245    22.906     7.843
   369   7 N        2.669    -0.265    26.852     7.696
   370   7 N        1.847    -0.360    30.223     8.148
   371   6 C        3.092     0.124    25.171     8.223
   372   1 H        0.924     0.095     1.836     2.119
   373   1 H        0.924     0.089     1.886     2.148
   374   1 H        0.924     0.098     1.803     2.100
   375   1 H        0.925     0.076     2.018     2.222
   376   1 H        0.924     0.076     2.016     2.221
   377   1 H        0.925     0.074     2.038     2.232
   378   1 H        0.924     0.078     2.003     2.213
   379   1 H        0.926     0.061     2.188     2.313
   380   1 H        0.860     0.235     0.943     1.521
   381   1 H        0.860     0.243     0.911     1.495
   382   1 H        0.860     0.246     0.900     1.486
   383  15 P        3.730     0.757   130.750    20.540
   384   8 O        1.614    -0.385    20.576     6.122
   385   8 O        0.808    -0.582    25.700     6.796
   386   8 O        1.656    -0.358    20.045     6.044
   387   6 C        3.920     0.051    19.659     6.302
   388   6 C        3.794     0.088    19.136     6.229
   389   8 O        1.700    -0.308    19.130     5.905
   390   6 C        3.952     0.108    18.747     6.152
   391   8 O        1.657    -0.324    19.430     5.951
   392   6 C        3.827    -0.095    22.287     6.718
   393   6 C        3.720     0.162    18.095     6.076
   394   7 N        2.740    -0.089    22.977     7.119
   395   6 C        2.756     0.325    21.472     7.588
   396   8 O        0.862    -0.516    24.133     6.587
   397   7 N        1.869    -0.367    30.410     8.174
   398   6 C        2.882     0.198    23.798     7.997
   399   7 N        2.676    -0.239    26.242     7.608
   400   6 C        2.911    -0.103    30.588     9.069
   401   6 C        2.861     0.040    27.108     8.534
   402   1 H        0.924     0.098     1.806     2.102
   403   1 H        0.925     0.080     1.976     2.198
   404   1 H        0.924     0.099     1.791     2.093
   405   1 H        0.924     0.065     2.140     2.288
   406   1 H        0.925     0.067     2.118     2.276
   407   1 H        0.925     0.094     1.838     2.120
   408   1 H        0.924     0.093     1.849     2.127
   409   1 H        0.860     0.232     0.957     1.532
   410   1 H        0.860     0.231     0.963     1.537
   411   1 H        0.926     0.077     2.011     2.218
   412   1 H        0.926     0.092     1.863     2.134
   413  15 P        3.761     0.761   130.630    20.531
   414   8 O        1.614    -0.384    20.560     6.120
   415   8 O        0.808    -0.586    25.800     6.809
   416   8 O        1.657    -0.342    19.758     6.001
   417   6 C        3.896     0.046    19.756     6.318
   418   6 C        3.778     0.083    19.219     6.246
   419   8 O        1.698    -0.307    19.119     5.903
   420   6 C        3.894     0.107    18.777     6.160
   421   8 O        1.655    -0.336    19.654     5.985
   422   6 C        3.823    -0.104    22.469     6.745
   423   6 C        3.701     0.157    18.205     6.101
   424   7 N        2.734    -0.074    22.668     7.071
   425   6 C        2.699     0.321    21.538     7.596
   426   8 O        0.859    -0.468    23.082     6.441
   427   7 N        2.695    -0.185    25.004     7.427
   428   6 C        2.763     0.277    22.322     7.737
   429   8 O        0.859    -0.466    23.036     6.435
   430   6 C        2.950    -0.044    29.083     8.845
   431   6 C        3.755    -0.127    22.990     6.837
   432   6 C        2.847     0.011    27.772     8.637
   433   1 H        0.925     0.094     1.844     2.124
   434   1 H        0.925     0.080     1.980     2.201
   435   1 H        0.925     0.114     1.667     2.019
   436   1 H        0.924     0.079     1.991     2.207
   437   1 H        0.925     0.089     1.887     2.148
   438   1 H        0.925     0.089     1.887     2.148
   439   1 H        0.925     0.093     1.850     2.127
   440   1 H        0.860     0.241     0.921     1.503
   441   1 H        0.924     0.087     1.909     2.161
   442   1 H        0.925     0.080     1.974     2.197
   443   1 H        0.925     0.059     2.213     2.326
   444   1 H        0.926     0.119     1.623     1.993
   445  15 P        3.715     0.751   130.954    20.556
   446   8 O        1.614    -0.379    20.467     6.106
   447   8 O        0.808    -0.575    25.532     6.773
   448   8 O        1.656    -0.341    19.743     5.998
   449   6 C        3.902     0.049    19.699     6.309
   450   6 C        3.793     0.090    19.093     6.222
   451   8 O        1.701    -0.316    19.281     5.928
   452   6 C        3.926     0.107    18.768     6.157
   453   8 O        1.657    -0.326    19.461     5.955
   454   6 C        3.816    -0.096    22.323     6.724
   455   6 C        3.735     0.172    17.916     6.041
   456   7 N        2.739    -0.086    22.917     7.110
   457   6 C        2.748     0.331    21.373     7.570
   458   8 O        0.861    -0.523    24.289     6.608
   459   7 N        1.855    -0.372    30.567     8.194
   460   6 C        2.875     0.188    23.983     8.028
   461   7 N        2.667    -0.237    26.207     7.603
   462   6 C        2.915    -0.110    30.786     9.098
   463   6 C        2.863     0.032    27.270     8.560
   464   1 H        0.924     0.093     1.853     2.129
   465   1 H        0.924     0.083     1.953     2.185
   466   1 H        0.924     0.093     1.855     2.130
   467   1 H        0.924     0.081     1.967     2.193
   468   1 H        0.925     0.085     1.926     2.170
   469   1 H        0.925     0.075     2.033     2.230
   470   1 H        0.925     0.073     2.054     2.241
   471   1 H        0.860     0.229     0.970     1.542
   472   1 H        0.860     0.242     0.917     1.500
   473   1 H        0.926     0.108     1.714     2.048
   474   1 H        0.926     0.105     1.740     2.063
   475  15 P        3.755     0.756   130.793    20.544
   476   8 O        1.614    -0.390    20.682     6.138
   477   8 O        0.808    -0.593    25.970     6.831
   478   8 O        1.656    -0.345    19.807     6.008
   479   6 C        3.918     0.051    19.666     6.303
   480   6 C        3.791     0.090    19.101     6.224
   481   8 O        1.701    -0.324    19.426     5.951
   482   6 C        3.926     0.112    18.696     6.145
   483   8 O        1.657    -0.336    19.641     5.983
   484   6 C        3.823    -0.093    22.263     6.714
   485   6 C        3.728     0.175    17.887     6.038
   486   7 N        2.737    -0.087    22.934     7.113
   487   6 C        2.754     0.334    21.320     7.561
   488   8 O        0.862    -0.518    24.179     6.593
   489   7 N        1.865    -0.374    30.603     8.200
   490   6 C        2.880     0.191    23.933     8.020
   491   7 N        2.674    -0.246    26.413     7.633
   492   6 C        2.911    -0.105    30.660     9.080
   493   6 C        2.859     0.038    27.148     8.540
   494   1 H        0.924     0.087     1.907     2.159
   495   1 H        0.925     0.081     1.970     2.195
   496   1 H        0.924     0.096     1.818     2.109
   497   1 H        0.924     0.078     2.002     2.213
   498   1 H        0.925     0.087     1.908     2.160
   499   1 H        0.925     0.077     2.011     2.218
   500   1 H        0.925     0.069     2.097     2.264
   501   1 H        0.860     0.233     0.954     1.530
   502   1 H        0.860     0.239     0.926     1.507
   503   1 H        0.926     0.103     1.754     2.071
   504   1 H        0.926     0.097     1.810     2.104
   505  15 P        3.720     0.752   130.931    20.555
   506   8 O        1.614    -0.389    20.657     6.134
   507   8 O        0.808    -0.591    25.920     6.825
   508   8 O        1.657    -0.340    19.716     5.994
   509   6 C        3.892     0.056    19.595     6.293
   510   6 C        3.839     0.096    18.976     6.197
   511   8 O        1.703    -0.324    19.421     5.950
   512   6 C        3.881     0.107    18.775     6.161
   513   8 O        1.657    -0.342    19.750     5.999
   514   6 C        3.838    -0.094    22.258     6.712
   515   6 C        3.752     0.170    17.929     6.038
   516   7 N        2.839    -0.063    22.448     7.037
   517   6 C        3.185     0.097    25.415     8.227
   518   7 N        1.867    -0.287    28.288     7.884
   519   6 C        3.243     0.007    26.902     8.406
   520   6 C        2.904     0.175    24.254     8.075
   521   7 N        2.673    -0.250    26.500     7.645
   522   7 N        1.870    -0.329    29.398     8.037
   523   6 C        2.926     0.152    24.704     8.151
   524   7 N        1.826    -0.324    29.238     8.012
   525   6 C        3.141     0.135    24.823     8.153
   526   1 H        0.924     0.080     1.980     2.201
   527   1 H        0.925     0.088     1.897     2.154
   528   1 H        0.924     0.078     2.004     2.214
   529   1 H        0.925     0.086     1.916     2.165
   530   1 H        0.925     0.082     1.953     2.186
   531   1 H        0.925     0.080     1.982     2.202
   532   1 H        0.925     0.067     2.115     2.274
   533   1 H        0.926     0.072     2.061     2.245
   534   1 H        0.860     0.238     0.933     1.513
   535   1 H        0.860     0.240     0.923     1.505
   536   1 H        0.926     0.019     2.749     2.593
   537  15 P        3.699     0.735   131.522    20.601
   538   8 O        1.614    -0.384    20.559     6.120
   539   8 O        0.808    -0.591    25.928     6.826
   540   8 O        1.656    -0.323    19.417     5.948
   541   6 C        3.905     0.059    19.533     6.282
   542   6 C        3.814     0.095    19.011     6.206
   543   8 O        1.703    -0.327    19.463     5.956
   544   6 C        3.763     0.104    18.917     6.200
   545   8 O        1.655    -0.490    22.679     6.429
   546   6 C        3.824    -0.095    22.291     6.719
   547   6 C        3.773     0.176    17.823     6.016
   548   7 N        2.738    -0.079    22.779     7.089
   549   6 C        2.704     0.326    21.466     7.583
   550   8 O        0.859    -0.495    23.674     6.523
   551   7 N        2.699    -0.197    25.276     7.467
   552   6 C        2.762     0.274    22.376     7.747
   553   8 O        0.860    -0.459    22.888     6.414
   554   6 C        2.951    -0.043    29.056     8.841
   555   6 C        3.753    -0.128    23.011     6.840
   556   6 C        2.843     0.020    27.559     8.603
   557   1 H        0.924     0.068     2.107     2.270
   558   1 H        0.924     0.083     1.953     2.185
   559   1 H        0.924     0.083     1.945     2.181
   560   1 H        0.924     0.058     2.222     2.331
   561   1 H        0.805     0.360     0.564     1.180
   562   1 H        0.925     0.073     2.053     2.241
   563   1 H        0.924     0.078     1.995     2.209
   564   1 H        0.925     0.069     2.102     2.267
   565   1 H        0.861     0.247     0.897     1.483
   566   1 H        0.925     0.072     2.069     2.249
   567   1 H        0.924     0.090     1.878     2.143
   568   1 H        0.925     0.079     1.994     2.208
   569   1 H        0.926     0.099     1.792     2.094
   570   1 H        0.899     0.437     0.416     1.009
   571   1 H        0.894     0.461     0.381     0.966
   572   1 H        0.896     0.461     0.381     0.966
   573   1 H        0.897     0.462     0.379     0.963
   574   1 H        0.895     0.457     0.387     0.974
   575   1 H        0.896     0.450     0.396     0.985
   576   1 H        0.896     0.440     0.411     1.003
   577   1 H        0.895     0.442     0.409     1.000
   578   1 H        0.896     0.459     0.384     0.969
   579   1 H        0.894     0.464     0.378     0.962
   580   1 H        0.899     0.449     0.398     0.987
   581   1 H        0.897     0.446     0.402     0.992
   582   1 H        0.897     0.442     0.409     1.000
   583   1 H        0.900     0.441     0.409     1.001
   584   1 H        0.897     0.446     0.403     0.993
   585   1 H        0.896     0.460     0.382     0.967

 Mol. C6AA /au·bohr⁶  :    4451565.282737
 Mol. C8AA /au·bohr⁸  :  110769144.963871
 Mol. α(0) /au        :       3194.309378


Wiberg/Mayer (AO) data.
largest (>0.10) Wiberg bond orders for each atom

 ---------------------------------------------------------------------------
     #   Z sym  total        # sym  WBO       # sym  WBO       # sym  WBO
 ---------------------------------------------------------------------------
     1   8 O    1.918 --     2 C    0.998    30 H    0.864
     2   6 C    3.958 --     1 O    0.998     3 C    0.982    19 H    0.970
                            20 H    0.968
     3   6 C    3.945 --     2 C    0.982     5 C    0.973     4 O    0.963
                            21 H    0.954
     4   8 O    2.076 --     8 C    0.979     3 C    0.963
     5   6 C    3.921 --     7 C    0.995     3 C    0.973    22 H    0.961
                             6 O    0.923
     6   8 O    2.270 --    31 P    1.133     5 C    0.923
     7   6 C    3.989 --     5 C    0.995     8 C    0.982    23 H    0.965
                            24 H    0.965
     8   6 C    3.942 --     7 C    0.982     4 O    0.979     9 N    0.956
                            25 H    0.955
     9   7 N    3.597 --    10 C    1.207    18 C    1.164     8 C    0.956
                            11 N    0.109
    10   6 C    3.947 --    11 N    1.607     9 N    1.207    26 H    0.955
    11   7 N    3.003 --    10 C    1.607    12 C    1.178     9 N    0.109
    12   6 C    3.969 --    18 C    1.336    13 C    1.188    11 N    1.178
    13   6 C    3.971 --    14 N    1.343    15 N    1.299    12 C    1.188
    14   7 N    3.434 --    13 C    1.343    27 H    0.924    28 H    0.898
    15   7 N    3.079 --    16 C    1.403    13 C    1.299
    16   6 C    3.973 --    17 N    1.472    15 N    1.403    29 H    0.957
    17   7 N    3.006 --    16 C    1.472    18 C    1.248
    18   6 C    3.959 --    12 C    1.336    17 N    1.248     9 N    1.164
    19   1 H    0.995 --     2 C    0.970
    20   1 H    0.997 --     2 C    0.968
    21   1 H    0.993 --     3 C    0.954
    22   1 H    0.995 --     5 C    0.961
    23   1 H    0.991 --     7 C    0.965
    24   1 H    0.996 --     7 C    0.965
    25   1 H    0.996 --     8 C    0.955
    26   1 H    0.992 --    10 C    0.955
    27   1 H    0.942 --    14 N    0.924
    28   1 H    0.943 --    14 N    0.898
    29   1 H    0.999 --    16 C    0.957
    30   1 H    0.876 --     1 O    0.864
    31  15 P    5.480 --    33 O    1.791    32 O    1.371     6 O    1.133
                            34 O    1.120
    32   8 O    2.293 --    31 P    1.371   577 H    0.761
    33   8 O    1.989 --    31 P    1.791
    34   8 O    2.253 --    31 P    1.120    35 C    0.936
[...]
   321   8 O    2.275 --   318 P    1.161   322 C    0.927
   322   6 C    3.917 --   323 C    0.985   340 H    0.967   339 H    0.965
                           321 O    0.927
   323   6 C    3.947 --   322 C    0.985   325 C    0.969   324 O    0.968
                           341 H    0.948
   324   8 O    2.079 --   328 C    0.973   323 C    0.968
   325   6 C    3.933 --   327 C    0.997   323 C    0.969   342 H    0.961
                           326 O    0.937
   326   8 O    2.274 --   350 P    1.120   325 C    0.937
   327   6 C    3.990 --   325 C    0.997   328 C    0.986   344 H    0.968
                           343 H    0.963
   328   6 C    3.936 --   327 C    0.986   324 O    0.973   329 N    0.957
                           345 H    0.953
   329   7 N    3.596 --   330 C    1.219   338 C    1.150   328 C    0.957
                           331 N    0.113
   330   6 C    3.960 --   331 N    1.606   329 N    1.219   346 H    0.952
   331   7 N    3.002 --   330 C    1.606   332 C    1.177   329 N    0.113
   332   6 C    3.971 --   338 C    1.337   333 C    1.194   331 N    1.177
   333   6 C    3.971 --   334 N    1.323   335 N    1.312   332 C    1.194
   334   7 N    3.417 --   333 C    1.323   347 H    0.938   348 H    0.879
   335   7 N    3.066 --   336 C    1.395   333 C    1.312
   336   6 C    3.966 --   337 N    1.471   335 N    1.395   349 H    0.956
   337   7 N    3.008 --   336 C    1.471   338 C    1.259
   338   6 C    3.958 --   332 C    1.337   337 N    1.259   329 N    1.150
   339   1 H    0.991 --   322 C    0.965
   340   1 H    0.993 --   322 C    0.967
   341   1 H    0.988 --   323 C    0.948
   342   1 H    0.995 --   325 C    0.961
   343   1 H    0.994 --   327 C    0.963
   344   1 H    0.995 --   327 C    0.968
   345   1 H    0.993 --   328 C    0.953
   346   1 H    0.996 --   330 C    0.952
   347   1 H    0.957 --   334 N    0.938
   348   1 H    0.942 --   334 N    0.879
   349   1 H    0.996 --   336 C    0.956
   350  15 P    5.485 --   352 O    1.786   351 O    1.381   353 O    1.132
                           326 O    1.120
   351   8 O    2.298 --   350 P    1.381   584 H    0.758
   352   8 O    1.987 --   350 P    1.786
   353   8 O    2.263 --   350 P    1.132   354 C    0.934
   354   6 C    3.922 --   355 C    0.990   372 H    0.961   373 H    0.960
                           353 O    0.934
   355   6 C    3.943 --   354 C    0.990   356 O    0.965   357 C    0.964
                           374 H    0.947
   356   8 O    2.070 --   360 C    0.972   355 C    0.965
   357   6 C    3.927 --   359 C    0.995   355 C    0.964   375 H    0.962
                           358 O    0.932
   358   8 O    2.278 --   383 P    1.134   357 C    0.932
   359   6 C    3.989 --   357 C    0.995   360 C    0.983   376 H    0.968
                           377 H    0.964
   360   6 C    3.935 --   359 C    0.983   356 O    0.972   361 N    0.960
                           378 H    0.952
   361   7 N    3.588 --   362 C    1.192   371 C    1.167   360 C    0.960
                           363 N    0.111
   362   6 C    3.944 --   363 N    1.613   361 N    1.192   379 H    0.958
   363   7 N    3.011 --   362 C    1.613   364 C    1.190   361 N    0.111
   364   6 C    3.962 --   371 C    1.359   363 N    1.190   365 C    1.124
   365   6 C    3.948 --   366 O    1.581   367 N    1.132   364 C    1.124
   366   8 O    1.948 --   365 C    1.581   367 N    0.133
   367   7 N    3.512 --   368 C    1.171   365 C    1.132   380 H    0.862
                           366 O    0.133
   368   6 C    3.967 --   370 N    1.368   369 N    1.336   367 N    1.171
   369   7 N    3.400 --   368 C    1.336   382 H    0.919   381 H    0.881
                           370 N    0.107
   370   7 N    2.957 --   368 C    1.368   371 C    1.227   369 N    0.107
   371   6 C    3.960 --   364 C    1.359   370 N    1.227   361 N    1.167
   372   1 H    0.991 --   354 C    0.961
   373   1 H    0.992 --   354 C    0.960
   374   1 H    0.989 --   355 C    0.947
   375   1 H    0.994 --   357 C    0.962
   376   1 H    0.994 --   359 C    0.968
   377   1 H    0.994 --   359 C    0.964
   378   1 H    0.994 --   360 C    0.952
   379   1 H    0.995 --   362 C    0.958
   380   1 H    0.944 --   367 N    0.862
   381   1 H    0.940 --   369 N    0.881
   382   1 H    0.939 --   369 N    0.919
   383  15 P    5.442 --   385 O    1.769   384 O    1.358   358 O    1.134
                           386 O    1.111
   384   8 O    2.281 --   383 P    1.358   583 H    0.757
   385   8 O    1.978 --   383 P    1.769
   386   8 O    2.240 --   383 P    1.111   387 C    0.932
   387   6 C    3.921 --   388 C    0.991   402 H    0.962   403 H    0.957
                           386 O    0.932
   388   6 C    3.945 --   387 C    0.991   390 C    0.969   389 O    0.966
                           404 H    0.948
   389   8 O    2.087 --   393 C    0.988   388 C    0.966
   390   6 C    3.931 --   392 C    0.990   388 C    0.969   405 H    0.959
                           391 O    0.945
   391   8 O    2.274 --   413 P    1.118   390 C    0.945
   392   6 C    3.985 --   390 C    0.990   393 C    0.979   406 H    0.970
                           407 H    0.966
   393   6 C    3.929 --   389 O    0.988   392 C    0.979   408 H    0.951
                           394 N    0.940
   394   7 N    3.577 --   401 C    1.217   395 C    1.077   393 C    0.940
                           396 O    0.113
   395   6 C    3.955 --   396 O    1.544   397 N    1.243   394 N    1.077
   396   8 O    1.928 --   395 C    1.544   397 N    0.120   394 N    0.113
   397   7 N    3.053 --   398 C    1.353   395 C    1.243   396 O    0.120
                           399 N    0.111
   398   6 C    3.965 --   399 N    1.370   397 N    1.353   400 C    1.152
   399   7 N    3.459 --   398 C    1.370   410 H    0.926   409 H    0.896
                           397 N    0.111
   400   6 C    3.977 --   401 C    1.644   398 C    1.152   411 H    0.961
   401   6 C    3.962 --   400 C    1.644   394 N    1.217   412 H    0.951
   402   1 H    0.990 --   387 C    0.962
   403   1 H    0.993 --   387 C    0.957
   404   1 H    0.989 --   388 C    0.948
   405   1 H    0.996 --   390 C    0.959
   406   1 H    0.995 --   392 C    0.970
   407   1 H    0.991 --   392 C    0.966
   408   1 H    0.990 --   393 C    0.951
   409   1 H    0.945 --   399 N    0.896
   410   1 H    0.946 --   399 N    0.926
   411   1 H    0.994 --   400 C    0.961
   412   1 H    0.991 --   401 C    0.951
   413  15 P    5.438 --   415 O    1.764   414 O    1.363   416 O    1.126
                           391 O    1.118
   414   8 O    2.285 --   413 P    1.363   582 H    0.758
   415   8 O    1.974 --   413 P    1.764
   416   8 O    2.259 --   413 P    1.126   417 C    0.934
   417   6 C    3.920 --   418 C    0.983   433 H    0.961   434 H    0.956
                           416 O    0.934
   418   6 C    3.945 --   417 C    0.983   420 C    0.971   419 O    0.970
                           435 H    0.946
   419   8 O    2.083 --   423 C    0.977   418 C    0.970
   420   6 C    3.930 --   422 C    0.993   418 C    0.971   436 H    0.960
                           421 O    0.934
   421   8 O    2.262 --   445 P    1.112   420 C    0.934
   422   6 C    3.984 --   420 C    0.993   423 C    0.985   437 H    0.963
                           438 H    0.960
   423   6 C    3.925 --   422 C    0.985   419 O    0.977   439 H    0.952
                           424 N    0.942
   424   7 N    3.567 --   432 C    1.169   425 C    1.111   423 C    0.942
                           426 O    0.133
   425   6 C    3.959 --   426 O    1.619   427 N    1.149   424 N    1.111
   426   8 O    1.961 --   425 C    1.619   424 N    0.133   427 N    0.131
   427   7 N    3.528 --   425 C    1.149   428 C    1.143   440 H    0.878
                           429 O    0.139   426 O    0.131
   428   6 C    3.939 --   429 O    1.621   427 N    1.143   430 C    1.081
   429   8 O    2.002 --   428 C    1.621   427 N    0.139
   430   6 C    3.980 --   432 C    1.651   428 C    1.081   431 C    1.022
   431   6 C    3.984 --   430 C    1.022   442 H    0.980   443 H    0.969
                           441 H    0.965
   432   6 C    3.953 --   430 C    1.651   424 N    1.169   444 H    0.942
   433   1 H    0.991 --   417 C    0.961
   434   1 H    0.994 --   417 C    0.956
   435   1 H    0.986 --   418 C    0.946
   436   1 H    0.993 --   420 C    0.960
   437   1 H    0.992 --   422 C    0.963
   438   1 H    0.992 --   422 C    0.960
   439   1 H    0.991 --   423 C    0.952
   440   1 H    0.941 --   427 N    0.878
   441   1 H    0.991 --   431 C    0.965
   442   1 H    0.993 --   431 C    0.980
   443   1 H    0.995 --   431 C    0.969
   444   1 H    0.986 --   432 C    0.942
   445  15 P    5.444 --   447 O    1.774   446 O    1.370   448 O    1.119
                           421 O    1.112
   446   8 O    2.292 --   445 P    1.370   581 H    0.760
   447   8 O    1.982 --   445 P    1.774
   448   8 O    2.254 --   445 P    1.119   449 C    0.938
   449   6 C    3.925 --   450 C    0.987   464 H    0.963   465 H    0.962
                           448 O    0.938
   450   6 C    3.945 --   449 C    0.987   452 C    0.968   451 O    0.967
                           466 H    0.948
   451   8 O    2.076 --   455 C    0.974   450 C    0.967
   452   6 C    3.922 --   454 C    0.993   450 C    0.968   467 H    0.959
                           453 O    0.931
   453   8 O    2.282 --   475 P    1.144   452 C    0.931
   454   6 C    3.988 --   452 C    0.993   455 C    0.980   469 H    0.968
                           468 H    0.967
   455   6 C    3.932 --   454 C    0.980   451 O    0.974   470 H    0.955
                           456 N    0.954
   456   7 N    3.576 --   463 C    1.206   457 C    1.077   455 C    0.954
                           458 O    0.112
   457   6 C    3.953 --   458 O    1.550   459 N    1.235   456 N    1.077
   458   8 O    1.937 --   457 C    1.550   459 N    0.119   456 N    0.112
   459   7 N    3.049 --   460 C    1.350   457 C    1.235   458 O    0.119
                           461 N    0.116
   460   6 C    3.965 --   461 N    1.378   459 N    1.350   462 C    1.149
   461   7 N    3.467 --   460 C    1.378   472 H    0.920   471 H    0.890
                           459 N    0.116
   462   6 C    3.972 --   463 C    1.650   460 C    1.149   473 H    0.955
   463   6 C    3.955 --   462 C    1.650   456 N    1.206   474 H    0.949
   464   1 H    0.991 --   449 C    0.963
   465   1 H    0.993 --   449 C    0.962
   466   1 H    0.990 --   450 C    0.948
   467   1 H    0.993 --   452 C    0.959
   468   1 H    0.992 --   454 C    0.967
   469   1 H    0.994 --   454 C    0.968
   470   1 H    0.994 --   455 C    0.955
   471   1 H    0.947 --   461 N    0.890
   472   1 H    0.941 --   461 N    0.920
   473   1 H    0.988 --   462 C    0.955
   474   1 H    0.988 --   463 C    0.949
   475  15 P    5.437 --   477 O    1.749   476 O    1.349   453 O    1.144
                           478 O    1.121
   476   8 O    2.273 --   475 P    1.349   580 H    0.759
   477   8 O    1.960 --   475 P    1.749
   478   8 O    2.253 --   475 P    1.121   479 C    0.935
   479   6 C    3.924 --   480 C    0.987   494 H    0.965   495 H    0.963
                           478 O    0.935
   480   6 C    3.946 --   479 C    0.987   482 C    0.970   481 O    0.966
                           496 H    0.948
   481   8 O    2.070 --   485 C    0.970   480 C    0.966
   482   6 C    3.926 --   484 C    0.993   480 C    0.970   497 H    0.960
                           483 O    0.931
   483   8 O    2.268 --   505 P    1.127   482 C    0.931
   484   6 C    3.988 --   482 C    0.993   485 C    0.987   499 H    0.968
                           498 H    0.962
   485   6 C    3.931 --   484 C    0.987   481 O    0.970   500 H    0.952
                           486 N    0.951
   486   7 N    3.575 --   493 C    1.209   487 C    1.074   485 C    0.951
                           488 O    0.111
   487   6 C    3.953 --   488 O    1.548   489 N    1.240   486 N    1.074
   488   8 O    1.941 --   487 C    1.548   489 N    0.117   486 N    0.111
   489   7 N    3.046 --   490 C    1.356   487 C    1.240   488 O    0.117
                           491 N    0.113
   490   6 C    3.965 --   491 N    1.370   489 N    1.356   492 C    1.149
   491   7 N    3.453 --   490 C    1.370   502 H    0.921   501 H    0.888
                           489 N    0.113
   492   6 C    3.971 --   493 C    1.649   490 C    1.149   503 H    0.956
   493   6 C    3.957 --   492 C    1.649   486 N    1.209   504 H    0.952
   494   1 H    0.992 --   479 C    0.965
   495   1 H    0.993 --   479 C    0.963
   496   1 H    0.989 --   480 C    0.948
   497   1 H    0.994 --   482 C    0.960
   498   1 H    0.992 --   484 C    0.962
   499   1 H    0.994 --   484 C    0.968
   500   1 H    0.995 --   485 C    0.952
   501   1 H    0.945 --   491 N    0.888
   502   1 H    0.942 --   491 N    0.921
   503   1 H    0.989 --   492 C    0.956
   504   1 H    0.990 --   493 C    0.952
   505  15 P    5.441 --   507 O    1.753   506 O    1.365   508 O    1.127
                           483 O    1.127
   506   8 O    2.282 --   505 P    1.365   579 H    0.750
   507   8 O    1.960 --   505 P    1.753
   508   8 O    2.263 --   505 P    1.127   509 C    0.937
   509   6 C    3.924 --   510 C    0.988   527 H    0.966   526 H    0.965
                           508 O    0.937
   510   6 C    3.946 --   509 C    0.988   512 C    0.967   511 O    0.966
                           528 H    0.950
   511   8 O    2.071 --   515 C    0.969   510 C    0.966
   512   6 C    3.927 --   514 C    0.997   510 C    0.967   529 H    0.959
                           513 O    0.928
   513   8 O    2.269 --   537 P    1.126   512 C    0.928
   514   6 C    3.988 --   512 C    0.997   515 C    0.980   530 H    0.965
                           531 H    0.962
   515   6 C    3.934 --   514 C    0.980   511 O    0.969   516 N    0.965
                           532 H    0.950
   516   7 N    3.601 --   517 C    1.223   525 C    1.150   515 C    0.965
                           518 N    0.114
   517   6 C    3.952 --   518 N    1.600   516 N    1.223   533 H    0.954
   518   7 N    2.999 --   517 C    1.600   519 C    1.178   516 N    0.114
   519   6 C    3.969 --   525 C    1.341   520 C    1.186   518 N    1.178
   520   6 C    3.971 --   521 N    1.339   522 N    1.306   519 C    1.186
   521   7 N    3.432 --   520 C    1.339   534 H    0.925   535 H    0.897
   522   7 N    3.079 --   523 C    1.408   520 C    1.306
   523   6 C    3.973 --   524 N    1.468   522 N    1.408   536 H    0.958
   524   7 N    3.007 --   523 C    1.468   525 C    1.253
   525   6 C    3.958 --   519 C    1.341   524 N    1.253   516 N    1.150
   526   1 H    0.993 --   509 C    0.965
   527   1 H    0.992 --   509 C    0.966
   528   1 H    0.993 --   510 C    0.950
   529   1 H    0.992 --   512 C    0.959
   530   1 H    0.993 --   514 C    0.965
   531   1 H    0.994 --   514 C    0.962
   532   1 H    0.995 --   515 C    0.950
   533   1 H    0.994 --   517 C    0.954
   534   1 H    0.943 --   521 N    0.925
   535   1 H    0.942 --   521 N    0.897
   536   1 H    0.999 --   523 C    0.958
   537  15 P    5.476 --   539 O    1.750   538 O    1.377   540 O    1.160
                           513 O    1.126
   538   8 O    2.294 --   537 P    1.377   578 H    0.755
   539   8 O    1.961 --   537 P    1.750
   540   8 O    2.281 --   537 P    1.160   541 C    0.932
   541   6 C    3.923 --   542 C    0.987   558 H    0.967   557 H    0.966
                           540 O    0.932
   542   6 C    3.942 --   541 C    0.987   544 C    0.969   543 O    0.962
                           559 H    0.952
   543   8 O    2.068 --   547 C    0.972   542 C    0.962
   544   6 C    3.962 --   545 O    0.995   546 C    0.986   542 C    0.969
                           560 H    0.963
   545   8 O    1.923 --   544 C    0.995   561 H    0.858
   546   6 C    3.986 --   544 C    0.986   547 C    0.978   563 H    0.972
                           562 H    0.969
   547   6 C    3.923 --   546 C    0.978   543 O    0.972   564 H    0.953
                           548 N    0.950
   548   7 N    3.570 --   556 C    1.166   549 C    1.114   547 C    0.950
                           550 O    0.129
   549   6 C    3.959 --   550 O    1.600   551 N    1.163   548 N    1.114
   550   8 O    1.944 --   549 C    1.600   548 N    0.129   551 N    0.129
   551   7 N    3.523 --   549 C    1.163   552 C    1.141   565 H    0.850
                           553 O    0.138   550 O    0.129
   552   6 C    3.941 --   553 O    1.621   551 N    1.141   554 C    1.084
   553   8 O    1.978 --   552 C    1.621   551 N    0.138
   554   6 C    3.977 --   556 C    1.648   552 C    1.084   555 C    1.021
   555   6 C    3.982 --   554 C    1.021   566 H    0.983   568 H    0.967
                           567 H    0.965
   556   6 C    3.951 --   554 C    1.648   548 N    1.166   569 H    0.949
   557   1 H    0.995 --   541 C    0.966
   558   1 H    0.993 --   541 C    0.967
   559   1 H    0.992 --   542 C    0.952
   560   1 H    0.996 --   544 C    0.963
   561   1 H    0.870 --   545 O    0.858
   562   1 H    0.995 --   546 C    0.969
   563   1 H    0.994 --   546 C    0.972
   564   1 H    0.995 --   547 C    0.953
   565   1 H    0.938 --   551 N    0.850
   566   1 H    0.995 --   555 C    0.983
   567   1 H    0.990 --   555 C    0.965
   568   1 H    0.992 --   555 C    0.967
   569   1 H    0.990 --   556 C    0.949
   570   1 H    0.809 --   258 O    0.758
   571   1 H    0.787 --   225 O    0.753
   572   1 H    0.787 --   195 O    0.751
   573   1 H    0.786 --   162 O    0.752
   574   1 H    0.791 --   130 O    0.751
   575   1 H    0.797 --    97 O    0.755
   576   1 H    0.806 --    64 O    0.756
   577   1 H    0.805 --    32 O    0.761
   578   1 H    0.789 --   538 O    0.755
   579   1 H    0.785 --   506 O    0.750
   580   1 H    0.798 --   476 O    0.759
   581   1 H    0.801 --   446 O    0.760
   582   1 H    0.805 --   414 O    0.758
   583   1 H    0.805 --   384 O    0.757
   584   1 H    0.801 --   351 O    0.758
   585   1 H    0.788 --   319 O    0.753
 ---------------------------------------------------------------------------

Topologies differ in total number of bonds
Writing topology from bond orders to xtbtopo.mol

molecular dipole:
                 x           y           z       tot (Debye)
 q only:       19.595      15.859       8.548
   full:       20.792      15.518       8.635      69.501
molecular quadrupole (traceless):
                xx          xy          yy          xz          yz          zz
 q only:      943.156    2492.510    -140.951    1972.748    2233.861    -802.204
  q+dip:     1101.876    2563.848    -282.720    2050.486    2278.282    -819.156
   full:     1094.527    2566.850    -294.131    2036.793    2268.573    -800.396


           -------------------------------------------------
          | TOTAL ENERGY            -1154.127162403367 Eh   |
          | GRADIENT NORM               0.615134143073 Eh/α |
          | HOMO-LUMO GAP               2.390695843587 eV   |
           -------------------------------------------------

------------------------------------------------------------------------
 * finished run on 2023/03/09 at 13:52:23.425     
------------------------------------------------------------------------
 total:
 * wall-time:     0 d,  0 h,  0 min,  6.248 sec
 *  cpu-time:     0 d,  0 h,  0 min, 59.496 sec
 * ratio c/w:     9.522 speedup
 SCF:
 * wall-time:     0 d,  0 h,  0 min,  5.615 sec
 *  cpu-time:     0 d,  0 h,  0 min, 53.658 sec
 * ratio c/w:     9.557 speedup

