      -----------------------------------------------------------      
     |                   =====================                   |     
     |                           x T B                           |     
     |                   =====================                   |     
     |                         S. Grimme                         |     
     |          Mulliken Center for Theoretical Chemistry        |     
     |                    University of Bonn                     |     
      -----------------------------------------------------------      

   * xtb version 6.5.1 (579679a) compiled by 'ehlert@majestix' on 2022-07-11

   xtb is free software: you can redistribute it and/or modify it under
   the terms of the GNU Lesser General Public License as published by
   the Free Software Foundation, either version 3 of the License, or
   (at your option) any later version.
   
   xtb is distributed in the hope that it will be useful,
   but WITHOUT ANY WARRANTY; without even the implied warranty of
   MERCHANTABILITY or FITNESS FOR A PARTICULAR PURPOSE.  See the
   GNU Lesser General Public License for more details.
   
   Cite this work as:
   * C. Bannwarth, E. Caldeweyher, S. Ehlert, A. Hansen, P. Pracht,
     J. Seibert, S. Spicher, S. Grimme, WIREs Comput. Mol. Sci., 2020, 11,
     e01493. DOI: 10.1002/wcms.1493
   
   for GFN2-xTB:
   * C. Bannwarth, S. Ehlert and S. Grimme., J. Chem. Theory Comput., 2019,
     15, 1652-1671. DOI: 10.1021/acs.jctc.8b01176
   for GFN1-xTB:
   * S. Grimme, C. Bannwarth, P. Shushkov, J. Chem. Theory Comput., 2017,
     13, 1989-2009. DOI: 10.1021/acs.jctc.7b00118
   for GFN0-xTB:
   * P. Pracht, E. Caldeweyher, S. Ehlert, S. Grimme, ChemRxiv, 2019, preprint.
     DOI: 10.26434/chemrxiv.8326202.v1
   for GFN-FF:
   * S. Spicher and S. Grimme, Angew. Chem. Int. Ed., 2020, 59, 15665-15673.
     DOI: 10.1002/anie.202004239
   
   for ALPB and GBSA implicit solvation:
   * S. Ehlert, M. Stahn, S. Spicher, S. Grimme, J. Chem. Theory Comput.,
     2021, 17, 4250-4261. DOI: 10.1021/acs.jctc.1c00471
   
   for DFT-D4:
   * E. Caldeweyher, C. Bannwarth and S. Grimme, J. Chem. Phys., 2017,
     147, 034112. DOI: 10.1063/1.4993215
   * E. Caldeweyher, S. Ehlert, A. Hansen, H. Neugebauer, S. Spicher,
     C. Bannwarth and S. Grimme, J. Chem. Phys., 2019, 150, 154122.
     DOI: 10.1063/1.5090222
   * E. Caldeweyher, J.-M. Mewes, S. Ehlert and S. Grimme, Phys. Chem. Chem. Phys.
     2020, 22, 8499-8512. DOI: 10.1039/D0CP00502A
   
   for sTDA-xTB:
   * S. Grimme and C. Bannwarth, J. Chem. Phys., 2016, 145, 054103.
     DOI: 10.1063/1.4959605
   
   in the mass-spec context:
   * V. Asgeirsson, C. Bauer and S. Grimme, Chem. Sci., 2017, 8, 4879.
     DOI: 10.1039/c7sc00601b
   * J. Koopman and S. Grimme, ACS Omega 2019, 4, 12, 15120-15133.
     DOI: 10.1021/acsomega.9b02011
   
   for metadynamics refer to:
   * S. Grimme, J. Chem. Theory Comput., 2019, 155, 2847-2862
     DOI: 10.1021/acs.jctc.9b00143
   
   for SPH calculations refer to:
   * S. Spicher and S. Grimme, J. Chem. Theory Comput., 2021, 17, 1701-1714
     DOI: 10.1021/acs.jctc.0c01306
   
   with help from (in alphabetical order)
   P. Atkinson, C. Bannwarth, F. Bohle, G. Brandenburg, E. Caldeweyher
   M. Checinski, S. Dohm, S. Ehlert, S. Ehrlich, I. Gerasimov, C. Hölzer
   A. Katbashev, J. Koopman, C. Lavigne, S. Lehtola, F. März, M. Müller,
   F. Musil, H. Neugebauer, J. Pisarek, C. Plett, P. Pracht, F. Pultar,
   J. Seibert, P. Shushkov, S. Spicher, M. Stahn, M. Steiner, T. Strunk,
   J. Stückrath, T. Rose, and J. Unsleber
   
 * started run on 2023/03/20 at 16:11:00.015     

           -------------------------------------------------
          |                Calculation Setup                |
           -------------------------------------------------

          program call               : /N/u/schandy/BigRed3/bin/xtb-6.5.1/bin/xtb 1K8L_min.xyz --gbsa water
          hostname                   : nid00259
          coordinate file            : 1K8L_min.xyz
          omp threads                :                    10

   ID    Z sym.   atoms
    1    8 O      1, 4, 6, 11, 30-32, 35, 37, 42, 60-62, 65, 67, 92-94, 97,
                  99, 107, 125-127, 130, 132, 140, 158-160, 163, 165,
                  190-192, 195, 197, 205, 223-225, 228, 230, 255-257, 260,
                  262, 267, 270, 289, 292, 294, 299, 302, 321, 324, 326, 331,
                  349-351, 354, 356, 361, 379-381, 384, 386, 411-413, 416,
                  418, 423, 441, 444, 446, 454, 473-475, 478, 480, 485, 488,
                  507, 510, 512, 520, 538-540, 543, 545, 553, 571-573, 576,
                  578, 603-605, 608, 610, 635-637, 640, 642, 647, 650, 669,
                  672, 674, 679, 697-699, 702, 704, 709, 712, 731, 734, 736,
                  741, 759-761, 764, 766, 771, 789-791, 794, 796, 801, 804,
                  823, 826, 828, 836, 854-856, 859, 861, 869
    2    6 C      2, 3, 5, 7, 8, 10, 13, 15, 16, 33, 34, 36, 38, 39, 41, 44,
                  46, 47, 63, 64, 66, 68, 69, 71, 73, 74, 77, 79, 95, 96, 98,
                  100, 101, 103, 105, 106, 109, 112, 128, 129, 131, 133, 134,
                  136, 138, 139, 142, 145, 161, 162, 164, 166, 167, 169, 171,
                  172, 175, 177, 193, 194, 196, 198, 199, 201, 203, 204, 207,
                  210, 226, 227, 229, 231, 232, 234, 236, 237, 240, 242, 258,
                  259, 261, 263, 264, 266, 269, 271-273, 290, 291, 293, 295,
                  296, 298, 301, 303-305, 322, 323, 325, 327, 328, 330, 333,
                  335, 336, 352, 353, 355, 357, 358, 360, 363, 365, 366, 382,
                  383, 385, 387, 388, 390, 392, 393, 396, 398, 414, 415, 417,
                  419, 420, 422, 425, 427, 428, 442, 443, 445, 447, 448, 450,
                  452, 453, 456, 459, 476, 477, 479, 481, 482, 484, 487,
                  489-491, 508, 509, 511, 513, 514, 516, 518, 519, 522, 525,
                  541, 542, 544, 546, 547, 549, 551, 552, 555, 558, 574, 575,
                  577, 579, 580, 582, 584, 585, 588, 590, 606, 607, 609, 611,
                  612, 614, 616, 617, 620, 622, 638, 639, 641, 643, 644, 646,
                  649, 651-653, 670, 671, 673, 675, 676, 678, 681, 683, 684,
                  700, 701, 703, 705, 706, 708, 711, 713-715, 732, 733, 735,
                  737, 738, 740, 743, 745, 746, 762, 763, 765, 767, 768, 770,
                  773, 775, 776, 792, 793, 795, 797, 798, 800, 803, 805-807,
                  824, 825, 827, 829, 830, 832, 834, 835, 838, 841, 857, 858,
                  860, 862, 863, 865, 867, 868, 871, 874
    3    7 N      9, 12, 14, 40, 43, 45, 70, 72, 75, 76, 78, 102, 104, 108,
                  110, 111, 135, 137, 141, 143, 144, 168, 170, 173, 174, 176,
                  200, 202, 206, 208, 209, 233, 235, 238, 239, 241, 265, 268,
                  297, 300, 329, 332, 334, 359, 362, 364, 389, 391, 394, 395,
                  397, 421, 424, 426, 449, 451, 455, 457, 458, 483, 486, 515,
                  517, 521, 523, 524, 548, 550, 554, 556, 557, 581, 583, 586,
                  587, 589, 613, 615, 618, 619, 621, 645, 648, 677, 680, 682,
                  707, 710, 739, 742, 744, 769, 772, 774, 799, 802, 831, 833,
                  837, 839, 840, 864, 866, 870, 872, 873
    4    1 H      17-28, 48-58, 80-90, 113-123, 146-156, 178-188, 211-221,
                  243-253, 274-285, 306-317, 337-347, 367-377, 399-409,
                  429-440, 460-471, 492-503, 526-536, 559-569, 591-601,
                  623-633, 654-665, 685-695, 716-727, 747-757, 777-787,
                  808-819, 842-852, 875-886
    5   15 P      29, 59, 91, 124, 157, 189, 222, 254, 286, 318, 348, 378,
                  410, 472, 504, 537, 570, 602, 634, 666, 696, 728, 758, 788,
                  820, 853
    6   16 S      287, 288, 319, 320, 505, 506, 667, 668, 729, 730, 821, 822

molecular fragmentation (1/2 indicates fragments):
111111111111111111111111111111111111111111111111111111111111111111111111
111111111111111111111111111111111111111111111111111111111111111111111111
111111111111111111111111111111111111111111111111111111111111111111111111
111111111111111111111111111111111111111111111111111111111111111111111111
111111111111111111111111111111111111111111111111111111111111111111111111
111111111111111111111111111111111111111111111111111111111111111111111111
111111112222222222222222222222222222222222222222222222222222222222222222
222222222222222222222222222222222222222222222222222222222222222222222222
222222222222222222222222222222222222222222222222222222222222222222222222
222222222222222222222222222222222222222222222222222222222222222222222222
222222222222222222222222222222222222222222222222222222222222222222222222
222222222222222222222222222222222222222222222222222222222222222222222222
2222222222222222222222
# atoms in fragment 1/2:   440   446
 fragment masses (1/2) :     4283.94     4410.22
CMA distance (Bohr)    :   4.625
constraining FC (au)   :  0.0500

           -------------------------------------------------
          |                 G F N 2 - x T B                 |
           -------------------------------------------------

        Reference                      10.1021/acs.jctc.8b01176
      * Hamiltonian:
        H0-scaling (s, p, d)           1.850000    2.230000    2.230000
        zeta-weighting                 0.500000
      * Dispersion:
        s8                             2.700000
        a1                             0.520000
        a2                             5.000000
        s9                             5.000000
      * Repulsion:
        kExp                           1.500000    1.000000
        rExp                           1.000000
      * Coulomb:
        alpha                          2.000000
        third order                    shell-resolved
        anisotropic                    true
        a3                             3.000000
        a5                             4.000000
        cn-shift                       1.200000
        cn-exp                         4.000000
        max-rad                        5.000000

      * Solvation model:               GBSA
        Solvent                        water
        Parameter file                 internal GFN2-xTB/GBSA
        Dielectric constant                8.0200E+01
        Reference state                gsolv [1 M gas/solution]
        Free energy shift                  1.8574E-03 Eh       1.1656E+00 kcal/mol
        Temperature                        2.9815E+02 K
        Density                            1.0000E+00 kg/L
        Solvent mass                       1.8000E+01 g/mol
        Interaction kernel             Still
        Born radius scaling (c1)           1.5524E+00
        Born radii integrator          GBOBC
        Born offset                        2.4628E-02 a0       4.6540E-02 AA
        H-bond correction              true
        Ion screening                  false
        Surface tension                    1.0000E-05 Eh       1.5569E+01 dyn/cm
        Grid points                               230 per atom
q/qsh data taken from xtbrestart
CAMM data taken from xtbrestart

          ...................................................
          :                      SETUP                      :
          :.................................................:
          :  # basis functions                2818          :
          :  # atomic orbitals                2780          :
          :  # shells                         1492          :
          :  # electrons                      3050          :
          :  max. iterations                   250          :
          :  Hamiltonian                  GFN2-xTB          :
          :  restarted?                       true          :
          :  GBSA solvation                   true          :
          :  PC potential                    false          :
          :  electronic temp.          300.0000000     K    :
          :  accuracy                    1.0000000          :
          :  -> integral cutoff          0.2500000E+02      :
          :  -> integral neglect         0.1000000E-07      :
          :  -> SCF convergence          0.1000000E-05 Eh   :
          :  -> wf. convergence          0.1000000E-03 e    :
          :  Broyden damping             0.4000000          :
          ...................................................

 iter      E             dE          RMSdq      gap      omega  full diag
   1  -1795.9661941 -0.179597E+04  0.175E+00    0.01       0.0  T
   2  -1796.1644952 -0.198301E+00  0.189E+00    0.01       1.0  T
   3  -1796.7011020 -0.536607E+00  0.254E+00    0.00       1.0  T
   4  -1796.3110519  0.390050E+00  0.151E+00    0.00       1.0  T
   5  -1797.5124465 -0.120139E+01  0.188E+00    0.00       1.0  T
   6  -1798.0859836 -0.573537E+00  0.149E+00    0.01       1.0  T
   7  -1797.7867729  0.299211E+00  0.153E+00    0.00       1.0  T
   8  -1798.1093403 -0.322567E+00  0.148E+00    0.00       1.0  T
   9  -1798.1015025  0.783774E-02  0.115E+00    0.02       1.0  T
  10  -1797.9475834  0.153919E+00  0.127E+00    0.01       1.0  T
  11  -1797.9210617  0.265217E-01  0.123E+00    0.00       1.0  T
  12  -1798.4362119 -0.515150E+00  0.117E+00    0.01       1.0  T
  13  -1798.7614582 -0.325246E+00  0.981E-01    0.00       1.0  T
  14  -1798.7441264  0.173318E-01  0.805E-01    0.01       1.0  T
  15  -1798.8258583 -0.817319E-01  0.896E-01    0.01       1.0  T
  16  -1798.8932817 -0.674233E-01  0.797E-01    0.00       1.0  T
  17  -1798.7793505  0.113931E+00  0.883E-01    0.01       1.0  T
  18  -1798.9527871 -0.173437E+00  0.787E-01    0.00       1.0  T
  19  -1799.0612707 -0.108484E+00  0.598E-01    0.00       1.0  T
  20  -1799.1887675 -0.127497E+00  0.495E-01    0.01       1.0  T
  21  -1799.2458689 -0.571013E-01  0.477E-01    0.00       1.0  T
  22  -1799.1711666  0.747022E-01  0.459E-01    0.00       1.0  T
  23  -1799.1795435 -0.837682E-02  0.512E-01    0.00       1.0  T
  24  -1799.1982920 -0.187485E-01  0.433E-01    0.01       1.0  T
  25  -1799.2228872 -0.245952E-01  0.397E-01    0.00       1.0  T
  26  -1799.2916493 -0.687621E-01  0.311E-01    0.00       1.0  T
  27  -1799.3339430 -0.422937E-01  0.256E-01    0.00       1.0  T
  28  -1799.3421299 -0.818691E-02  0.222E-01    0.00       1.0  T
  29  -1799.2794418  0.626881E-01  0.329E-01    0.00       1.0  T
  30  -1799.3264581 -0.470163E-01  0.253E-01    0.00       1.0  T
  31  -1799.2822786  0.441795E-01  0.294E-01    0.00       1.0  T
  32  -1799.3109839 -0.287053E-01  0.257E-01    0.00       1.0  T
  33  -1799.3230863 -0.121024E-01  0.235E-01    0.00       1.0  T
  34  -1799.3498517 -0.267654E-01  0.174E-01    0.00       1.0  T
  35  -1799.3524002 -0.254857E-02  0.156E-01    0.01       1.0  T
  36  -1799.3570052 -0.460494E-02  0.146E-01    0.00       1.0  T
  37  -1799.3511590  0.584620E-02  0.175E-01    0.00       1.0  T
  38  -1799.3723518 -0.211928E-01  0.113E-01    0.00       1.0  T
  39  -1799.3745967 -0.224486E-02  0.114E-01    0.00       1.0  T
  40  -1799.3781391 -0.354243E-02  0.981E-02    0.00       1.0  T
  41  -1799.3850124 -0.687325E-02  0.733E-02    0.00       1.0  T
  42  -1799.3867654 -0.175309E-02  0.641E-02    0.00       1.0  T
  43  -1799.3861841  0.581352E-03  0.644E-02    0.00       1.0  T
  44  -1799.3872696 -0.108547E-02  0.575E-02    0.00       1.0  T
  45  -1799.3876828 -0.413206E-03  0.467E-02    0.00       1.0  T
  46  -1799.3875248  0.158011E-03  0.503E-02    0.00       1.0  T
  47  -1799.3862297  0.129509E-02  0.527E-02    0.00       1.0  T
  48  -1799.3877250 -0.149534E-02  0.440E-02    0.00       1.0  T
  49  -1799.3883233 -0.598302E-03  0.393E-02    0.00       1.0  T
  50  -1799.3897236 -0.140030E-02  0.282E-02    0.00       1.0  T
  51  -1799.3899749 -0.251262E-03  0.234E-02    0.00       1.0  T
  52  -1799.3898912  0.837108E-04  0.253E-02    0.00       1.0  T
  53  -1799.3899094 -0.182442E-04  0.265E-02    0.00       1.0  T
  54  -1799.3901441 -0.234713E-03  0.193E-02    0.00       1.0  T
  55  -1799.3902200 -0.758389E-04  0.164E-02    0.00       1.0  T
  56  -1799.3901065  0.113501E-03  0.187E-02    0.00       1.0  T
  57  -1799.3902063 -0.998576E-04  0.160E-02    0.00       1.0  T
  58  -1799.3902936 -0.873384E-04  0.133E-02    0.00       1.0  T
  59  -1799.3903233 -0.296936E-04  0.115E-02    0.00       1.0  T
  60  -1799.3903990 -0.756873E-04  0.902E-03    0.00       1.0  T
  61  -1799.3903691  0.299486E-04  0.967E-03    0.00       1.0  T
  62  -1799.3903402  0.288793E-04  0.103E-02    0.00       1.0  T
  63  -1799.3904124 -0.722184E-04  0.748E-03    0.00       1.0  T
  64  -1799.3904069  0.554865E-05  0.851E-03    0.00       1.0  T
  65  -1799.3904163 -0.942654E-05  0.785E-03    0.00       1.0  T
  66  -1799.3904456 -0.292580E-04  0.442E-03    0.00       1.0  T
  67  -1799.3904463 -0.724050E-06  0.457E-03    0.00       1.0  T
  68  -1799.3904554 -0.910867E-05  0.380E-03    0.00       1.0  T
  69  -1799.3904551  0.273840E-06  0.378E-03    0.00       1.0  T
  70  -1799.3904585 -0.339370E-05  0.345E-03    0.00       1.0  T
  71  -1799.3904590 -0.472729E-06  0.289E-03    0.00       1.2  T
  72  -1799.3904625 -0.356381E-05  0.207E-03    0.00       1.6  T
  73  -1799.3904640 -0.147185E-05  0.169E-03    0.00       2.0  T
  74  -1799.3904649 -0.921701E-06  0.135E-03    0.00       2.5  T
  75  -1799.3904657 -0.741029E-06  0.104E-03    0.00       3.2  T
  76  -1799.3904659 -0.177986E-06  0.833E-04    0.00       4.0  T
  77  -1799.3904660 -0.120338E-06  0.750E-04    0.00       4.5  T

   *** convergence criteria satisfied after 77 iterations ***

         #    Occupation            Energy/Eh            Energy/eV
      -------------------------------------------------------------
         1        2.0000           -0.7969566             -21.6863
       ...           ...                  ...                  ...
      1519        1.5440           -0.4312602             -11.7352
      1520        1.5327           -0.4312300             -11.7344
      1521        1.5285           -0.4312188             -11.7341
      1522        1.5170           -0.4311888             -11.7332
      1523        1.4833           -0.4311034             -11.7309
      1524        1.4244           -0.4309624             -11.7271
      1525        1.4118           -0.4309334             -11.7263 (HOMO)
      1526        1.4062           -0.4309204             -11.7259 (LUMO)
      1527        1.2953           -0.4306798             -11.7194
      1528        1.2847           -0.4306577             -11.7188
      1529        1.2520           -0.4305909             -11.7170
      1530        1.1368           -0.4303630             -11.7108
       ...           ...                  ...                  ...
      2780                          1.2749751              34.6938
      -------------------------------------------------------------
                  HL-Gap            0.0000130 Eh            0.0004 eV
             Fermi-level           -0.4301014 Eh          -11.7037 eV

 SCC (total)                   0 d,  0 h,  1 min, 27.425 sec
 SCC setup                      ...        0 min,  0.109 sec (  0.124%)
 Dispersion                     ...        0 min,  0.417 sec (  0.477%)
 classical contributions        ...        0 min,  0.005 sec (  0.006%)
 integral evaluation            ...        0 min,  0.888 sec (  1.016%)
 iterations                     ...        1 min, 22.868 sec ( 94.788%)
 molecular gradient             ...        0 min,  2.962 sec (  3.388%)
 printout                       ...        0 min,  0.175 sec (  0.200%)

         :::::::::::::::::::::::::::::::::::::::::::::::::::::
         ::                     SUMMARY                     ::
         :::::::::::::::::::::::::::::::::::::::::::::::::::::
         :: total energy           -1782.323370395576 Eh    ::
         :: total w/o Gsasa/hb     -1782.169475091982 Eh    ::
         :: gradient norm              0.554463422897 Eh/a0 ::
         :: HOMO-LUMO gap              0.000353030160 eV    ::
         ::.................................................::
         :: SCC energy             -1799.390465975501 Eh    ::
         :: -> isotropic ES            7.234014966030 Eh    ::
         :: -> anisotropic ES         -0.903799338274 Eh    ::
         :: -> anisotropic XC          0.334875431323 Eh    ::
         :: -> dispersion             -1.591180109997 Eh    ::
         :: -> Gsolv                  -2.278504083566 Eh    ::
         ::    -> Gelec               -2.124608779972 Eh    ::
         ::    -> Gsasa               -0.023500605395 Eh    ::
         ::    -> Ghb                 -0.132252141326 Eh    ::
         ::    -> Gshift               0.001857443127 Eh    ::
         :: repulsion energy          16.924836353504 Eh    ::
         :: add. restraining           0.000000000000 Eh    ::
         :: total charge               0.000000000033 e     ::
         :::::::::::::::::::::::::::::::::::::::::::::::::::::

           -------------------------------------------------
          |                Property Printout                |
           -------------------------------------------------

    * Orbital Energies and Occupations

         #    Occupation            Energy/Eh            Energy/eV
      -------------------------------------------------------------
         1        2.0000           -0.7969566             -21.6863
       ...           ...                  ...                  ...
      1513        1.6271           -0.4315011             -11.7417
      1514        1.6009           -0.4314211             -11.7396
      1515        1.5905           -0.4313905             -11.7387
      1516        1.5879           -0.4313830             -11.7385
      1517        1.5856           -0.4313764             -11.7383
      1518        1.5753           -0.4313468             -11.7375
      1519        1.5440           -0.4312602             -11.7352
      1520        1.5327           -0.4312300             -11.7344
      1521        1.5285           -0.4312188             -11.7341
      1522        1.5170           -0.4311888             -11.7332
      1523        1.4833           -0.4311034             -11.7309
      1524        1.4244           -0.4309624             -11.7271
      1525        1.4118           -0.4309334             -11.7263 (HOMO)
      1526        1.4062           -0.4309204             -11.7259 (LUMO)
      1527        1.2953           -0.4306798             -11.7194
      1528        1.2847           -0.4306577             -11.7188
      1529        1.2520           -0.4305909             -11.7170
      1530        1.1368           -0.4303630             -11.7108
      1531        1.0986           -0.4302893             -11.7088
      1532        1.0650           -0.4302251             -11.7070
      1533        1.0156           -0.4301310             -11.7045
      1534        0.9976           -0.4300969             -11.7035
      1535        0.9867           -0.4300762             -11.7030
      1536        0.9644           -0.4300338             -11.7018
       ...           ...                  ...                  ...
      2780                          1.2749751              34.6938
      -------------------------------------------------------------
                  HL-Gap            0.0000130 Eh            0.0004 eV
             Fermi-level           -0.4301014 Eh          -11.7037 eV

 * generalized Born model for continuum solvation

     #   Z     Born rad/Å   SASA/Å²    H-bond
     1   8 O        2.275    16.013    -0.002
     2   6 C        2.733     1.885    -0.000
     3   6 C        3.278     0.158    -0.000
     4   8 O        2.794    11.147    -0.002
     5   6 C        3.366     0.363    -0.000
     6   8 O        2.761     1.133    -0.000
     7   6 C        3.195     1.012    -0.000
     8   6 C        3.548     0.400    -0.000
     9   7 N        3.363     0.923    -0.000
    10   6 C        3.411     4.510    -0.000
    11   8 O        2.726     6.940    -0.001
    12   7 N        3.281     2.327    -0.001
    13   6 C        3.403     3.782    -0.000
    14   7 N        2.550     4.483    -0.001
    15   6 C        3.043     6.134    -0.000
    16   6 C        3.057     5.919    -0.000
    17   1 H        2.100    15.641    -0.021
    18   1 H        2.046    19.681    -0.026
    19   1 H        2.294     7.936    -0.011
    20   1 H        2.250    10.383    -0.014
    21   1 H        2.235    11.373    -0.015
    22   1 H        2.381     3.070    -0.004
    23   1 H        2.620     3.205    -0.004
    24   1 H        2.457     3.936    -0.005
    25   1 H        2.142    20.351    -0.027
    26   1 H        2.074    18.664    -0.025
    27   1 H        2.159    14.103    -0.019
    28   1 H        2.071     9.133    -0.012
    29  15 P        3.244     7.482    -0.001
    30   8 O        2.250    17.814    -0.002
    31   8 O        2.297    13.932    -0.002
    32   8 O        2.492     8.462    -0.001
    33   6 C        2.783     1.262    -0.000
    34   6 C        3.265     0.268    -0.000
    35   8 O        2.961     4.313    -0.001
    36   6 C        3.318     0.022    -0.000
    37   8 O        2.637     3.812    -0.001
    38   6 C        3.392     0.000    -0.000
    39   6 C        3.618     0.439    -0.000
    40   7 N        3.690     0.050    -0.000
    41   6 C        3.719     0.007    -0.000
    42   8 O        2.833     4.632    -0.001
    43   7 N        3.745     0.000    -0.000
    44   6 C        3.886     0.029    -0.000
    45   7 N        2.759     0.504    -0.000
    46   6 C        3.357     2.890    -0.000
    47   6 C        3.373     1.201    -0.000
    48   1 H        2.119    13.548    -0.018
    49   1 H        2.109    16.069    -0.021
    50   1 H        2.259    12.753    -0.017
    51   1 H        2.264     8.716    -0.012
    52   1 H        2.455     4.080    -0.005
    53   1 H        2.484     0.746    -0.001
    54   1 H        2.431     9.015    -0.012
    55   1 H        2.742     1.883    -0.003
    56   1 H        2.260    15.589    -0.021
    57   1 H        2.200    12.904    -0.017
    58   1 H        2.323     6.822    -0.009
    59  15 P        3.186    10.385    -0.001
    60   8 O        2.173    25.161    -0.003
    61   8 O        2.211    21.967    -0.003
    62   8 O        2.681     0.722    -0.000
    63   6 C        2.872     0.498    -0.000
    64   6 C        3.255     0.234    -0.000
    65   8 O        2.953     8.020    -0.001
    66   6 C        3.289     0.311    -0.000
    67   8 O        2.650     4.355    -0.001
    68   6 C        3.293     0.624    -0.000
    69   6 C        3.623     0.392    -0.000
    70   7 N        3.909     0.359    -0.000
    71   6 C        3.368     2.954    -0.000
    72   7 N        3.036     7.849    -0.002
    73   6 C        4.711     0.237    -0.000
    74   6 C        4.414     0.024    -0.000
    75   7 N        2.925     0.220    -0.000
    76   7 N        3.836     0.000    -0.000
    77   6 C        3.461     0.474    -0.000
    78   7 N        3.120     5.613    -0.002
    79   6 C        4.528     0.712    -0.000
    80   1 H        2.175    11.888    -0.016
    81   1 H        2.136    13.328    -0.018
    82   1 H        2.186    16.057    -0.021
    83   1 H        2.234     9.647    -0.013
    84   1 H        2.357     8.850    -0.012
    85   1 H        2.363     2.393    -0.003
    86   1 H        2.473     5.114    -0.007
    87   1 H        2.395     4.904    -0.007
    88   1 H        2.885     0.714    -0.001
    89   1 H        2.457     9.678    -0.013
    90   1 H        2.395    11.060    -0.015
    91  15 P        3.174    10.553    -0.001
    92   8 O        2.174    24.915    -0.003
    93   8 O        2.200    23.411    -0.003
    94   8 O        2.644     1.410    -0.000
    95   6 C        2.868     0.461    -0.000
    96   6 C        3.304     0.204    -0.000
    97   8 O        3.062     2.812    -0.000
    98   6 C        3.311     0.213    -0.000
    99   8 O        2.674     3.839    -0.001
   100   6 C        3.285     0.893    -0.000
   101   6 C        3.715     0.197    -0.000
   102   7 N        4.001     0.053    -0.000
   103   6 C        3.357     4.091    -0.000
   104   7 N        2.969    12.642    -0.004
   105   6 C        4.420     0.762    -0.000
   106   6 C        3.796     0.340    -0.000
   107   8 O        2.707     8.391    -0.001
   108   7 N        3.914     0.000     0.000
   109   6 C        4.345     0.004    -0.000
   110   7 N        2.963     0.261    -0.000
   111   7 N        3.458     2.714    -0.001
   112   6 C        4.734     0.012    -0.000
   113   1 H        2.184    10.874    -0.015
   114   1 H        2.135    13.936    -0.019
   115   1 H        2.224    15.063    -0.020
   116   1 H        2.232     9.896    -0.013
   117   1 H        2.314    10.330    -0.014
   118   1 H        2.357     2.833    -0.004
   119   1 H        2.551     4.871    -0.007
   120   1 H        2.350     6.709    -0.009
   121   1 H        3.751     0.000     0.000
   122   1 H        2.919     1.193    -0.002
   123   1 H        2.398    11.323    -0.015
   124  15 P        3.198     9.798    -0.001
   125   8 O        2.183    24.737    -0.003
   126   8 O        2.218    22.255    -0.003
   127   8 O        2.669     0.452    -0.000
   128   6 C        2.885     0.471    -0.000
   129   6 C        3.305     0.269    -0.000
   130   8 O        3.058     2.099    -0.000
   131   6 C        3.323     0.375    -0.000
   132   8 O        2.677     4.098    -0.001
   133   6 C        3.326     0.862    -0.000
   134   6 C        3.772     0.029    -0.000
   135   7 N        4.110     0.034    -0.000
   136   6 C        3.405     4.033    -0.000
   137   7 N        3.003    11.806    -0.004
   138   6 C        4.527     0.080    -0.000
   139   6 C        3.867     0.054    -0.000
   140   8 O        2.734     7.929    -0.001
   141   7 N        3.975     0.000     0.000
   142   6 C        4.427     0.006    -0.000
   143   7 N        2.982     0.247    -0.000
   144   7 N        3.545     2.290    -0.001
   145   6 C        4.902     0.000    -0.000
   146   1 H        2.179    11.796    -0.016
   147   1 H        2.152    12.737    -0.017
   148   1 H        2.207    16.084    -0.021
   149   1 H        2.231    10.557    -0.014
   150   1 H        2.357     9.029    -0.012
   151   1 H        2.378     3.042    -0.004
   152   1 H        2.571     3.714    -0.005
   153   1 H        2.383     4.669    -0.006
   154   1 H        3.801     0.000    -0.000
   155   1 H        2.900     1.130    -0.002
   156   1 H        2.417     9.872    -0.013
   157  15 P        3.206     9.647    -0.001
   158   8 O        2.184    24.660    -0.003
   159   8 O        2.222    21.886    -0.003
   160   8 O        2.685     0.351    -0.000
   161   6 C        2.896     0.447    -0.000
   162   6 C        3.302     0.262    -0.000
   163   8 O        3.059     2.375    -0.000
   164   6 C        3.300     0.333    -0.000
   165   8 O        2.623     5.844    -0.001
   166   6 C        3.299     0.751    -0.000
   167   6 C        3.707     0.027    -0.000
   168   7 N        4.065     0.000     0.000
   169   6 C        3.424     2.785    -0.000
   170   7 N        3.074     9.062    -0.003
   171   6 C        4.931     0.026    -0.000
   172   6 C        4.468     0.006    -0.000
   173   7 N        2.859     0.354    -0.000
   174   7 N        3.894     0.001    -0.000
   175   6 C        3.519     0.259    -0.000
   176   7 N        3.189     5.169    -0.002
   177   6 C        4.798     0.000     0.000
   178   1 H        2.190    11.545    -0.015
   179   1 H        2.159    12.392    -0.017
   180   1 H        2.205    16.058    -0.021
   181   1 H        2.226    10.340    -0.014
   182   1 H        2.362     8.687    -0.012
   183   1 H        2.364     2.359    -0.003
   184   1 H        2.488     7.638    -0.010
   185   1 H        2.401     4.108    -0.005
   186   1 H        2.790     1.412    -0.002
   187   1 H        2.348    14.533    -0.019
   188   1 H        2.438     8.191    -0.011
   189  15 P        3.166     9.943    -0.001
   190   8 O        2.152    28.718    -0.004
   191   8 O        2.231    19.427    -0.003
   192   8 O        2.599     4.932    -0.001
   193   6 C        2.862     0.399    -0.000
   194   6 C        3.331     0.117    -0.000
   195   8 O        3.099     0.787    -0.000
   196   6 C        3.340     0.035    -0.000
   197   8 O        2.638     5.075    -0.001
   198   6 C        3.401     0.030    -0.000
   199   6 C        3.723     0.013    -0.000
   200   7 N        4.077     0.000    -0.000
   201   6 C        3.352     3.615    -0.000
   202   7 N        2.989    11.298    -0.003
   203   6 C        4.543     0.030    -0.000
   204   6 C        3.909     0.015    -0.000
   205   8 O        2.765     6.661    -0.001
   206   7 N        3.917     0.000     0.000
   207   6 C        4.239     0.005    -0.000
   208   7 N        2.875     0.631    -0.000
   209   7 N        3.411     3.214    -0.001
   210   6 C        4.800     0.000     0.000
   211   1 H        2.131    15.191    -0.020
   212   1 H        2.205     9.304    -0.012
   213   1 H        2.259    13.687    -0.018
   214   1 H        2.286     8.570    -0.011
   215   1 H        2.430     6.486    -0.009
   216   1 H        2.485     0.679    -0.001
   217   1 H        2.488     9.261    -0.012
   218   1 H        2.296    12.347    -0.016
   219   1 H        3.712     0.001    -0.000
   220   1 H        2.799     1.841    -0.002
   221   1 H        2.328    15.907    -0.021
   222  15 P        3.198    10.006    -0.001
   223   8 O        2.182    24.750    -0.003
   224   8 O        2.215    22.527    -0.003
   225   8 O        2.705     0.271    -0.000
   226   6 C        2.890     0.493    -0.000
   227   6 C        3.283     0.288    -0.000
   228   8 O        3.001     5.146    -0.001
   229   6 C        3.316     0.314    -0.000
   230   8 O        2.652     4.453    -0.001
   231   6 C        3.328     0.538    -0.000
   232   6 C        3.691     0.243    -0.000
   233   7 N        4.059     0.022    -0.000
   234   6 C        3.465     0.345    -0.000
   235   7 N        3.092     5.138    -0.002
   236   6 C        4.859     0.005    -0.000
   237   6 C        4.375     0.000    -0.000
   238   7 N        2.839     0.371    -0.000
   239   7 N        3.788     0.000    -0.000
   240   6 C        3.461     0.416    -0.000
   241   7 N        3.169     5.357    -0.002
   242   6 C        4.726     0.039    -0.000
   243   1 H        2.177    12.979    -0.017
   244   1 H        2.150    12.819    -0.017
   245   1 H        2.191    16.276    -0.022
   246   1 H        2.254     8.929    -0.012
   247   1 H        2.389     6.247    -0.008
   248   1 H        2.373     2.646    -0.004
   249   1 H        2.494     5.745    -0.008
   250   1 H        2.422     4.357    -0.006
   251   1 H        2.762     1.367    -0.002
   252   1 H        2.341    14.173    -0.019
   253   1 H        2.409     8.595    -0.011
   254  15 P        3.182    10.308    -0.001
   255   8 O        2.179    24.742    -0.003
   256   8 O        2.204    23.353    -0.003
   257   8 O        2.644     2.246    -0.000
   258   6 C        2.869     0.516    -0.000
   259   6 C        3.348     0.134    -0.000
   260   8 O        3.098     2.272    -0.000
   261   6 C        3.477     0.073    -0.000
   262   8 O        2.794     4.391    -0.001
   263   6 C        3.543     0.001    -0.000
   264   6 C        3.766     0.211    -0.000
   265   7 N        3.882     0.000    -0.000
   266   6 C        3.740     0.032    -0.000
   267   8 O        2.618     7.864    -0.001
   268   7 N        3.517     0.004    -0.000
   269   6 C        3.724     0.002    -0.000
   270   8 O        2.744     5.126    -0.001
   271   6 C        3.965     0.000     0.000
   272   6 C        2.820     2.223    -0.000
   273   6 C        3.652     0.000    -0.000
   274   1 H        2.176    11.982    -0.016
   275   1 H        2.138    14.409    -0.019
   276   1 H        2.261    13.820    -0.018
   277   1 H        2.393     6.551    -0.009
   278   1 H        2.599     0.978    -0.001
   279   1 H        2.584     0.054    -0.000
   280   1 H        2.476     9.600    -0.013
   281   1 H        3.398     0.013    -0.000
   282   1 H        2.276     9.331    -0.012
   283   1 H        2.229     9.483    -0.013
   284   1 H        2.160    14.828    -0.020
   285   1 H        2.459     2.838    -0.004
   286  15 P        3.596     2.201    -0.000
   287  16 S        2.831    48.724    -0.000
   288  16 S        2.909    37.123    -0.000
   289   8 O        2.889     0.715    -0.000
   290   6 C        2.950     0.526    -0.000
   291   6 C        3.328     0.256    -0.000
   292   8 O        3.034     5.482    -0.001
   293   6 C        3.439     0.286    -0.000
   294   8 O        2.804     4.351    -0.001
   295   6 C        3.395     0.302    -0.000
   296   6 C        3.726     0.244    -0.000
   297   7 N        3.764     0.005    -0.000
   298   6 C        3.691     0.134    -0.000
   299   8 O        2.630     6.374    -0.001
   300   7 N        3.492     0.000    -0.000
   301   6 C        3.714     0.000     0.000
   302   8 O        2.750     3.702    -0.001
   303   6 C        3.894     0.016    -0.000
   304   6 C        2.804     2.604    -0.000
   305   6 C        3.604     0.340    -0.000
   306   1 H        2.206    12.045    -0.016
   307   1 H        2.195    11.651    -0.016
   308   1 H        2.204    16.154    -0.022
   309   1 H        2.346     7.283    -0.010
   310   1 H        2.420     8.301    -0.011
   311   1 H        2.429     1.667    -0.002
   312   1 H        2.506     4.499    -0.006
   313   1 H        3.354     0.000    -0.000
   314   1 H        2.157    13.314    -0.018
   315   1 H        2.256     6.233    -0.008
   316   1 H        2.227     7.942    -0.011
   317   1 H        2.522     1.286    -0.002
   318  15 P        3.554     2.135    -0.000
   319  16 S        2.830    48.083    -0.000
   320  16 S        2.865    45.538    -0.000
   321   8 O        2.799     1.262    -0.000
   322   6 C        2.932     0.434    -0.000
   323   6 C        3.344     0.197    -0.000
   324   8 O        3.087     2.557    -0.000
   325   6 C        3.340     0.244    -0.000
   326   8 O        2.690     3.448    -0.000
   327   6 C        3.328     0.407    -0.000
   328   6 C        3.757     0.193    -0.000
   329   7 N        3.779     0.003    -0.000
   330   6 C        3.829     0.001    -0.000
   331   8 O        2.937     2.455    -0.000
   332   7 N        3.817     0.000    -0.000
   333   6 C        3.936     0.050    -0.000
   334   7 N        2.744     1.403    -0.000
   335   6 C        3.444     2.623    -0.000
   336   6 C        3.450     1.646    -0.000
   337   1 H        2.212    10.863    -0.015
   338   1 H        2.195    12.059    -0.016
   339   1 H        2.243    14.756    -0.020
   340   1 H        2.246    10.132    -0.014
   341   1 H        2.339     9.881    -0.013
   342   1 H        2.553     4.615    -0.006
   343   1 H        2.278    12.779    -0.017
   344   1 H        2.664     2.792    -0.004
   345   1 H        2.242    10.847    -0.014
   346   1 H        2.393     4.009    -0.005
   347   1 H        2.401     1.598    -0.002
   348  15 P        3.210     9.169    -0.001
   349   8 O        2.184    24.942    -0.003
   350   8 O        2.230    21.293    -0.003
   351   8 O        2.689     0.382    -0.000
   352   6 C        2.886     0.495    -0.000
   353   6 C        3.288     0.284    -0.000
   354   8 O        3.024     4.157    -0.001
   355   6 C        3.307     0.362    -0.000
   356   8 O        2.661     4.039    -0.001
   357   6 C        3.317     0.738    -0.000
   358   6 C        3.728     0.025    -0.000
   359   7 N        3.784     0.023    -0.000
   360   6 C        3.858     0.002    -0.000
   361   8 O        2.982     1.987    -0.000
   362   7 N        3.789     0.001    -0.000
   363   6 C        3.885     0.837    -0.000
   364   7 N        2.738     1.441    -0.000
   365   6 C        3.410     4.411    -0.000
   366   6 C        3.439     2.646    -0.000
   367   1 H        2.175    12.275    -0.016
   368   1 H        2.149    12.841    -0.017
   369   1 H        2.197    16.271    -0.022
   370   1 H        2.234    10.376    -0.014
   371   1 H        2.365     9.641    -0.013
   372   1 H        2.387     2.130    -0.003
   373   1 H        2.516     4.046    -0.005
   374   1 H        2.665     2.748    -0.004
   375   1 H        2.271    15.302    -0.020
   376   1 H        2.237    10.264    -0.014
   377   1 H        2.430     1.853    -0.002
   378  15 P        3.195     9.391    -0.001
   379   8 O        2.180    24.851    -0.003
   380   8 O        2.219    21.636    -0.003
   381   8 O        2.671     0.435    -0.000
   382   6 C        2.876     0.477    -0.000
   383   6 C        3.281     0.271    -0.000
   384   8 O        2.997     6.015    -0.001
   385   6 C        3.292     0.382    -0.000
   386   8 O        2.667     3.970    -0.001
   387   6 C        3.323     0.539    -0.000
   388   6 C        3.724     0.211    -0.000
   389   7 N        4.031     0.003    -0.000
   390   6 C        3.376     1.687    -0.000
   391   7 N        3.024     8.010    -0.002
   392   6 C        4.780     0.000    -0.000
   393   6 C        4.318     0.000    -0.000
   394   7 N        2.803     0.427    -0.000
   395   7 N        3.837     0.000    -0.000
   396   6 C        3.580     0.209    -0.000
   397   7 N        3.276     2.473    -0.001
   398   6 C        4.777     0.015    -0.000
   399   1 H        2.171    12.410    -0.017
   400   1 H        2.144    12.898    -0.017
   401   1 H        2.196    16.102    -0.022
   402   1 H        2.210    11.513    -0.015
   403   1 H        2.369     7.559    -0.010
   404   1 H        2.388     2.414    -0.003
   405   1 H        2.566     2.966    -0.004
   406   1 H        2.379     4.990    -0.007
   407   1 H        2.704     1.727    -0.002
   408   1 H        2.334    12.915    -0.017
   409   1 H        2.471     7.015    -0.009
   410  15 P        3.191     9.848    -0.001
   411   8 O        2.175    25.018    -0.003
   412   8 O        2.216    21.618    -0.003
   413   8 O        2.685     0.388    -0.000
   414   6 C        2.881     0.510    -0.000
   415   6 C        3.221     0.319    -0.000
   416   8 O        3.007     3.976    -0.001
   417   6 C        3.127     0.570    -0.000
   418   8 O        2.298    13.976    -0.002
   419   6 C        3.098     1.351    -0.000
   420   6 C        3.499     0.114    -0.000
   421   7 N        3.530     0.634    -0.000
   422   6 C        3.402     4.350    -0.000
   423   8 O        2.632     9.498    -0.001
   424   7 N        3.333     3.240    -0.001
   425   6 C        3.614     3.919    -0.000
   426   7 N        2.627     3.759    -0.001
   427   6 C        3.328     4.666    -0.000
   428   6 C        3.359     3.260    -0.000
   429   1 H        2.190    10.955    -0.015
   430   1 H        2.142    12.762    -0.017
   431   1 H        2.170    16.525    -0.022
   432   1 H        2.167    13.536    -0.018
   433   1 H        1.948    20.136    -0.027
   434   1 H        2.282     9.974    -0.013
   435   1 H        2.154    16.026    -0.021
   436   1 H        2.364    10.344    -0.014
   437   1 H        2.484     4.999    -0.007
   438   1 H        2.217    16.005    -0.021
   439   1 H        2.219    10.081    -0.013
   440   1 H        2.412     2.047    -0.003
   441   8 O        2.225    18.541    -0.003
   442   6 C        2.719     1.735    -0.000
   443   6 C        3.175     0.162    -0.000
   444   8 O        2.848     6.314    -0.001
   445   6 C        3.244     0.317    -0.000
   446   8 O        2.653     3.780    -0.001
   447   6 C        3.264     0.229    -0.000
   448   6 C        3.482     0.671    -0.000
   449   7 N        3.562     0.883    -0.000
   450   6 C        3.022     6.363    -0.000
   451   7 N        2.686    17.689    -0.005
   452   6 C        3.704     3.417    -0.000
   453   6 C        3.291     4.465    -0.000
   454   8 O        2.500    13.655    -0.002
   455   7 N        3.318     2.060    -0.001
   456   6 C        3.708     4.121    -0.000
   457   7 N        2.701     3.810    -0.001
   458   7 N        3.146     4.899    -0.001
   459   6 C        4.017     3.373    -0.000
   460   1 H        2.057    18.026    -0.024
   461   1 H        2.106    13.722    -0.018
   462   1 H        2.162    15.665    -0.021
   463   1 H        2.207    10.263    -0.014
   464   1 H        2.301     7.532    -0.010
   465   1 H        2.443     0.016    -0.000
   466   1 H        2.443     5.736    -0.008
   467   1 H        2.156    15.625    -0.021
   468   1 H        3.155     1.078    -0.001
   469   1 H        2.554     3.607    -0.005
   470   1 H        2.268    13.919    -0.019
   471   1 H        1.954    18.035    -0.024
   472  15 P        3.197     9.337    -0.001
   473   8 O        2.178    24.781    -0.003
   474   8 O        2.227    19.634    -0.003
   475   8 O        2.685     0.262    -0.000
   476   6 C        2.880     0.488    -0.000
   477   6 C        3.287     0.268    -0.000
   478   8 O        3.009     2.512    -0.000
   479   6 C        3.406     0.276    -0.000
   480   8 O        2.798     4.137    -0.001
   481   6 C        3.355     0.341    -0.000
   482   6 C        3.726     0.012    -0.000
   483   7 N        3.788     0.000     0.000
   484   6 C        3.794     0.000    -0.000
   485   8 O        2.668     5.855    -0.001
   486   7 N        3.490     0.000    -0.000
   487   6 C        3.576     0.236    -0.000
   488   8 O        2.650     7.372    -0.001
   489   6 C        3.761     0.516    -0.000
   490   6 C        2.766     2.773    -0.000
   491   6 C        3.508     1.260    -0.000
   492   1 H        2.165    11.459    -0.015
   493   1 H        2.153    12.534    -0.017
   494   1 H        2.196    16.041    -0.021
   495   1 H        2.326     7.170    -0.010
   496   1 H        2.389     8.517    -0.011
   497   1 H        2.408     1.805    -0.002
   498   1 H        2.525     3.812    -0.005
   499   1 H        3.353     0.002    -0.000
   500   1 H        2.243     6.505    -0.009
   501   1 H        2.198     9.960    -0.013
   502   1 H        2.126    18.869    -0.025
   503   1 H        2.446     1.831    -0.002
   504  15 P        3.538     2.314    -0.000
   505  16 S        2.825    47.873    -0.000
   506  16 S        2.856    45.707    -0.000
   507   8 O        2.782     1.662    -0.000
   508   6 C        2.923     0.437    -0.000
   509   6 C        3.336     0.166    -0.000
   510   8 O        3.083     2.105    -0.000
   511   6 C        3.321     0.196    -0.000
   512   8 O        2.691     3.477    -0.000
   513   6 C        3.287     0.872    -0.000
   514   6 C        3.724     0.318    -0.000
   515   7 N        3.965     0.082    -0.000
   516   6 C        3.343     4.232    -0.000
   517   7 N        2.969    11.414    -0.003
   518   6 C        4.370     0.845    -0.000
   519   6 C        3.791     0.240    -0.000
   520   8 O        2.705     7.563    -0.001
   521   7 N        3.981     0.000     0.000
   522   6 C        4.472     0.003    -0.000
   523   7 N        3.005     0.267    -0.000
   524   7 N        3.503     1.958    -0.001
   525   6 C        4.683     0.045    -0.000
   526   1 H        2.211    10.825    -0.014
   527   1 H        2.185    12.429    -0.017
   528   1 H        2.245    14.433    -0.019
   529   1 H        2.233    10.507    -0.014
   530   1 H        2.312    10.560    -0.014
   531   1 H        2.570     4.489    -0.006
   532   1 H        2.345     7.293    -0.010
   533   1 H        3.809     0.000    -0.000
   534   1 H        2.936     1.646    -0.002
   535   1 H        2.422    11.865    -0.016
   536   1 H        2.359     3.128    -0.004
   537  15 P        3.206     9.467    -0.001
   538   8 O        2.184    24.886    -0.003
   539   8 O        2.224    21.532    -0.003
   540   8 O        2.678     0.473    -0.000
   541   6 C        2.894     0.462    -0.000
   542   6 C        3.306     0.276    -0.000
   543   8 O        3.056     2.556    -0.000
   544   6 C        3.321     0.321    -0.000
   545   8 O        2.669     4.521    -0.001
   546   6 C        3.314     0.757    -0.000
   547   6 C        3.757     0.022    -0.000
   548   7 N        4.094     0.004    -0.000
   549   6 C        3.384     3.494    -0.000
   550   7 N        2.991    12.088    -0.004
   551   6 C        4.555     0.120    -0.000
   552   6 C        3.899     0.037    -0.000
   553   8 O        2.736     7.873    -0.001
   554   7 N        3.977     0.000    -0.000
   555   6 C        4.399     0.004    -0.000
   556   7 N        2.947     0.324    -0.000
   557   7 N        3.542     1.940    -0.001
   558   6 C        4.919     0.000    -0.000
   559   1 H        2.187    11.466    -0.015
   560   1 H        2.156    12.601    -0.017
   561   1 H        2.207    16.116    -0.022
   562   1 H        2.236     9.990    -0.013
   563   1 H        2.358     9.044    -0.012
   564   1 H        2.356     2.601    -0.003
   565   1 H        2.559     3.770    -0.005
   566   1 H        2.370     4.563    -0.006
   567   1 H        3.770     0.000    -0.000
   568   1 H        2.886     1.113    -0.001
   569   1 H        2.380    13.109    -0.018
   570  15 P        3.195    10.065    -0.001
   571   8 O        2.183    24.718    -0.003
   572   8 O        2.209    23.028    -0.003
   573   8 O        2.681     0.481    -0.000
   574   6 C        2.895     0.526    -0.000
   575   6 C        3.334     0.251    -0.000
   576   8 O        3.087     1.817    -0.000
   577   6 C        3.360     0.299    -0.000
   578   8 O        2.721     2.347    -0.000
   579   6 C        3.346     0.866    -0.000
   580   6 C        3.798     0.061    -0.000
   581   7 N        4.117     0.004    -0.000
   582   6 C        3.401     3.517    -0.000
   583   7 N        3.055     8.584    -0.003
   584   6 C        4.981     0.001    -0.000
   585   6 C        4.502     0.000    -0.000
   586   7 N        2.858     0.276    -0.000
   587   7 N        3.885     0.000    -0.000
   588   6 C        3.568     0.291    -0.000
   589   7 N        3.262     5.541    -0.002
   590   6 C        4.929     0.000    -0.000
   591   1 H        2.193    11.273    -0.015
   592   1 H        2.153    13.188    -0.018
   593   1 H        2.222    15.821    -0.021
   594   1 H        2.247    10.025    -0.013
   595   1 H        2.360     8.143    -0.011
   596   1 H        2.404     4.060    -0.005
   597   1 H        2.588     5.407    -0.007
   598   1 H        2.348     7.610    -0.010
   599   1 H        2.801     1.338    -0.002
   600   1 H        2.343    14.491    -0.019
   601   1 H        2.457     7.897    -0.011
   602  15 P        3.232     8.156    -0.001
   603   8 O        2.189    25.086    -0.003
   604   8 O        2.249    19.868    -0.003
   605   8 O        2.727     0.421    -0.000
   606   6 C        2.882     0.527    -0.000
   607   6 C        3.259     0.308    -0.000
   608   8 O        2.930    10.554    -0.001
   609   6 C        3.303     0.331    -0.000
   610   8 O        2.646     4.715    -0.001
   611   6 C        3.351     0.588    -0.000
   612   6 C        3.674     0.247    -0.000
   613   7 N        4.030     0.383    -0.000
   614   6 C        3.495     0.198    -0.000
   615   7 N        3.172     2.960    -0.001
   616   6 C        4.959     0.001    -0.000
   617   6 C        4.508     0.000    -0.000
   618   7 N        2.930     0.183    -0.000
   619   7 N        3.819     0.000    -0.000
   620   6 C        3.422     0.537    -0.000
   621   7 N        3.116     7.229    -0.002
   622   6 C        4.657     0.843    -0.000
   623   1 H        2.165    13.491    -0.018
   624   1 H        2.141    13.308    -0.018
   625   1 H        2.177    16.469    -0.022
   626   1 H        2.243     9.600    -0.013
   627   1 H        2.420     5.222    -0.007
   628   1 H        2.408     2.446    -0.003
   629   1 H        2.502     5.147    -0.007
   630   1 H        2.471     1.541    -0.002
   631   1 H        2.866     0.999    -0.001
   632   1 H        2.417    11.077    -0.015
   633   1 H        2.402     7.809    -0.010
   634  15 P        3.175    10.633    -0.001
   635   8 O        2.176    25.031    -0.003
   636   8 O        2.197    23.710    -0.003
   637   8 O        2.647     2.689    -0.000
   638   6 C        2.873     0.514    -0.000
   639   6 C        3.362     0.215    -0.000
   640   8 O        3.138     1.453    -0.000
   641   6 C        3.463     0.081    -0.000
   642   8 O        2.785     4.409    -0.001
   643   6 C        3.489     0.006    -0.000
   644   6 C        3.772     0.092    -0.000
   645   7 N        3.883     0.000     0.000
   646   6 C        3.747     0.013    -0.000
   647   8 O        2.614     8.124    -0.001
   648   7 N        3.518     0.002    -0.000
   649   6 C        3.745     0.000    -0.000
   650   8 O        2.712     7.042    -0.001
   651   6 C        3.973     0.022    -0.000
   652   6 C        2.812     2.598    -0.000
   653   6 C        3.636     0.317    -0.000
   654   1 H        2.189    11.245    -0.015
   655   1 H        2.136    14.774    -0.020
   656   1 H        2.273    13.701    -0.018
   657   1 H        2.391     6.133    -0.008
   658   1 H        2.500     2.974    -0.004
   659   1 H        2.538     0.341    -0.000
   660   1 H        2.490     9.435    -0.013
   661   1 H        3.357     0.012    -0.000
   662   1 H        2.263    10.183    -0.014
   663   1 H        2.218    10.242    -0.014
   664   1 H        2.163    13.971    -0.019
   665   1 H        2.452     4.139    -0.006
   666  15 P        3.578     2.224    -0.000
   667  16 S        2.832    48.021    -0.000
   668  16 S        2.887    42.951    -0.000
   669   8 O        2.863     0.494    -0.000
   670   6 C        2.940     0.510    -0.000
   671   6 C        3.303     0.261    -0.000
   672   8 O        3.021     6.296    -0.001
   673   6 C        3.332     0.269    -0.000
   674   8 O        2.658     4.358    -0.001
   675   6 C        3.342     0.410    -0.000
   676   6 C        3.691     0.422    -0.000
   677   7 N        3.772     0.071    -0.000
   678   6 C        3.725     0.435    -0.000
   679   8 O        2.834     4.308    -0.001
   680   7 N        3.764     0.003    -0.000
   681   6 C        4.005     0.003    -0.000
   682   7 N        2.792     1.127    -0.000
   683   6 C        3.510     0.476    -0.000
   684   6 C        3.525     0.351    -0.000
   685   1 H        2.198    12.727    -0.017
   686   1 H        2.200    11.242    -0.015
   687   1 H        2.200    16.040    -0.021
   688   1 H        2.266     9.125    -0.012
   689   1 H        2.401     6.709    -0.009
   690   1 H        2.472     5.579    -0.007
   691   1 H        2.331     9.953    -0.013
   692   1 H        2.713     2.372    -0.003
   693   1 H        2.259    10.909    -0.015
   694   1 H        2.469     2.132    -0.003
   695   1 H        2.385     1.816    -0.002
   696  15 P        3.191    10.137    -0.001
   697   8 O        2.181    24.667    -0.003
   698   8 O        2.212    22.887    -0.003
   699   8 O        2.659     1.327    -0.000
   700   6 C        2.876     0.502    -0.000
   701   6 C        3.321     0.218    -0.000
   702   8 O        3.050     3.497    -0.000
   703   6 C        3.439     0.160    -0.000
   704   8 O        2.804     4.241    -0.001
   705   6 C        3.393     0.174    -0.000
   706   6 C        3.737     0.115    -0.000
   707   7 N        3.795     0.000    -0.000
   708   6 C        3.776     0.002    -0.000
   709   8 O        2.654     6.452    -0.001
   710   7 N        3.568     0.000    -0.000
   711   6 C        3.773     0.000    -0.000
   712   8 O        2.766     5.318    -0.001
   713   6 C        3.969     0.005    -0.000
   714   6 C        2.847     2.491    -0.000
   715   6 C        3.581     0.274    -0.000
   716   1 H        2.173    11.888    -0.016
   717   1 H        2.147    13.723    -0.018
   718   1 H        2.229    15.070    -0.020
   719   1 H        2.349     6.600    -0.009
   720   1 H        2.385     8.456    -0.011
   721   1 H        2.468     0.461    -0.001
   722   1 H        2.512     5.127    -0.007
   723   1 H        3.462     0.000     0.000
   724   1 H        2.259     7.909    -0.011
   725   1 H        2.172    13.403    -0.018
   726   1 H        2.351     5.943    -0.008
   727   1 H        2.445     2.958    -0.004
   728  15 P        3.561     2.150    -0.000
   729  16 S        2.830    48.242    -0.000
   730  16 S        2.873    44.644    -0.000
   731   8 O        2.811     0.967    -0.000
   732   6 C        2.930     0.474    -0.000
   733   6 C        3.325     0.191    -0.000
   734   8 O        3.068     3.181    -0.000
   735   6 C        3.334     0.299    -0.000
   736   8 O        2.679     3.961    -0.001
   737   6 C        3.332     0.516    -0.000
   738   6 C        3.756     0.262    -0.000
   739   7 N        3.808     0.004    -0.000
   740   6 C        3.856     0.015    -0.000
   741   8 O        2.945     2.614    -0.000
   742   7 N        3.859     0.000    -0.000
   743   6 C        4.009     0.000    -0.000
   744   7 N        2.771     0.755    -0.000
   745   6 C        3.450     1.907    -0.000
   746   6 C        3.464     1.186    -0.000
   747   1 H        2.202    11.440    -0.015
   748   1 H        2.194    11.697    -0.016
   749   1 H        2.220    15.434    -0.021
   750   1 H        2.243    10.403    -0.014
   751   1 H        2.361     8.962    -0.012
   752   1 H        2.549     4.149    -0.006
   753   1 H        2.295    11.586    -0.015
   754   1 H        2.675     3.021    -0.004
   755   1 H        2.226    12.029    -0.016
   756   1 H        2.403     4.525    -0.006
   757   1 H        2.384     2.613    -0.003
   758  15 P        3.207     9.539    -0.001
   759   8 O        2.184    24.754    -0.003
   760   8 O        2.225    21.883    -0.003
   761   8 O        2.680     0.498    -0.000
   762   6 C        2.890     0.472    -0.000
   763   6 C        3.311     0.272    -0.000
   764   8 O        3.080     2.773    -0.000
   765   6 C        3.334     0.306    -0.000
   766   8 O        2.672     4.268    -0.001
   767   6 C        3.367     0.374    -0.000
   768   6 C        3.796     0.009    -0.000
   769   7 N        3.925     0.000     0.000
   770   6 C        3.950     0.000     0.000
   771   8 O        2.993     2.016    -0.000
   772   7 N        3.875     0.000    -0.000
   773   6 C        4.011     0.161    -0.000
   774   7 N        2.767     2.145    -0.001
   775   6 C        3.536     1.384    -0.000
   776   6 C        3.550     0.753    -0.000
   777   1 H        2.178    12.153    -0.016
   778   1 H        2.154    12.751    -0.017
   779   1 H        2.210    16.051    -0.021
   780   1 H        2.249     9.572    -0.013
   781   1 H        2.395     7.079    -0.009
   782   1 H        2.405     1.130    -0.002
   783   1 H        2.533     3.743    -0.005
   784   1 H        2.673     2.966    -0.004
   785   1 H        2.309    13.766    -0.018
   786   1 H        2.280     9.374    -0.013
   787   1 H        2.455     1.889    -0.003
   788  15 P        3.205     9.677    -0.001
   789   8 O        2.185    24.710    -0.003
   790   8 O        2.220    22.447    -0.003
   791   8 O        2.680     0.862    -0.000
   792   6 C        2.900     0.504    -0.000
   793   6 C        3.335     0.222    -0.000
   794   8 O        3.072     3.430    -0.000
   795   6 C        3.442     0.170    -0.000
   796   8 O        2.802     4.458    -0.001
   797   6 C        3.387     0.498    -0.000
   798   6 C        3.745     0.051    -0.000
   799   7 N        3.833     0.000    -0.000
   800   6 C        3.770     0.000    -0.000
   801   8 O        2.622     8.875    -0.001
   802   7 N        3.550     0.000    -0.000
   803   6 C        3.766     0.004    -0.000
   804   8 O        2.775     4.822    -0.001
   805   6 C        3.973     0.054    -0.000
   806   6 C        2.839     2.668    -0.000
   807   6 C        3.610     0.512    -0.000
   808   1 H        2.188    11.530    -0.015
   809   1 H        2.162    12.983    -0.017
   810   1 H        2.226    15.562    -0.021
   811   1 H        2.374     5.301    -0.007
   812   1 H        2.400     7.327    -0.010
   813   1 H        2.451     0.495    -0.001
   814   1 H        2.491     6.338    -0.008
   815   1 H        3.385     0.000    -0.000
   816   1 H        2.160    16.751    -0.022
   817   1 H        2.355     5.361    -0.007
   818   1 H        2.247     8.693    -0.012
   819   1 H        2.464     2.546    -0.003
   820  15 P        3.546     2.150    -0.000
   821  16 S        2.834    47.264    -0.000
   822  16 S        2.855    46.905    -0.000
   823   8 O        2.826     0.826    -0.000
   824   6 C        2.950     0.479    -0.000
   825   6 C        3.421     0.188    -0.000
   826   8 O        3.065     4.142    -0.001
   827   6 C        3.394     0.318    -0.000
   828   8 O        2.801     0.652    -0.000
   829   6 C        3.297     1.027    -0.000
   830   6 C        3.829     0.125    -0.000
   831   7 N        3.985     0.002    -0.000
   832   6 C        3.325     3.706    -0.000
   833   7 N        2.957     9.712    -0.003
   834   6 C        4.372     0.185    -0.000
   835   6 C        3.778     0.039    -0.000
   836   8 O        2.717     5.813    -0.001
   837   7 N        3.888     0.000    -0.000
   838   6 C        4.281     0.007    -0.000
   839   7 N        2.906     0.470    -0.000
   840   7 N        3.450     3.508    -0.001
   841   6 C        4.697     0.043    -0.000
   842   1 H        2.209    11.602    -0.016
   843   1 H        2.202     9.511    -0.013
   844   1 H        2.319     6.589    -0.009
   845   1 H        2.243    11.252    -0.015
   846   1 H        2.340     7.412    -0.010
   847   1 H        2.789     0.980    -0.001
   848   1 H        2.313     9.480    -0.013
   849   1 H        3.746     0.000    -0.000
   850   1 H        2.834     1.740    -0.002
   851   1 H        2.350    13.854    -0.019
   852   1 H        2.295    10.165    -0.014
   853  15 P        3.203     7.992    -0.001
   854   8 O        2.254    16.286    -0.002
   855   8 O        2.164    28.364    -0.004
   856   8 O        2.613     2.878    -0.000
   857   6 C        2.849     0.542    -0.000
   858   6 C        3.206     0.332    -0.000
   859   8 O        2.983     3.336    -0.000
   860   6 C        3.123     0.602    -0.000
   861   8 O        2.299    13.725    -0.002
   862   6 C        3.095     1.361    -0.000
   863   6 C        3.502     0.015    -0.000
   864   7 N        3.713     0.530    -0.000
   865   6 C        3.265     4.662    -0.000
   866   7 N        2.873    11.002    -0.003
   867   6 C        3.955     3.360    -0.000
   868   6 C        3.390     4.447    -0.000
   869   8 O        2.522    13.793    -0.002
   870   7 N        3.343     1.895    -0.001
   871   6 C        3.681     4.034    -0.000
   872   7 N        2.694     3.644    -0.001
   873   7 N        3.111     6.751    -0.002
   874   6 C        4.157     3.514    -0.000
   875   1 H        2.221     7.382    -0.010
   876   1 H        2.094    17.621    -0.024
   877   1 H        2.161    16.509    -0.022
   878   1 H        2.158    13.894    -0.019
   879   1 H        1.947    20.180    -0.027
   880   1 H        2.268     9.197    -0.012
   881   1 H        2.156    16.284    -0.022
   882   1 H        2.415     8.881    -0.012
   883   1 H        2.371     4.386    -0.006
   884   1 H        3.114     2.246    -0.003
   885   1 H        2.605     3.743    -0.005
   886   1 H        2.234    17.676    -0.024

 total SASA / Å² :     5385.995

     #   Z          covCN         q      C6AA      α(0)
     1   8 O        1.654    -0.397    20.801     6.157
     2   6 C        3.674     0.046    20.025     6.413
     3   6 C        3.851     0.090    19.061     6.210
     4   8 O        1.706    -0.269    18.464     5.802
     5   6 C        4.026     0.112    18.683     6.140
     6   8 O        1.658    -0.327    19.490     5.960
     7   6 C        3.829    -0.110    22.580     6.761
     8   6 C        3.837     0.160    18.007     6.037
     9   7 N        2.737    -0.040    22.007     6.967
    10   6 C        2.747     0.328    21.421     7.578
    11   8 O        0.862    -0.497    23.725     6.531
    12   7 N        1.864    -0.281    28.148     7.864
    13   6 C        2.871     0.191    23.920     8.017
    14   7 N        2.668    -0.185    25.001     7.426
    15   6 C        2.907    -0.071    29.773     8.947
    16   6 C        2.856     0.043    27.039     8.523
    17   1 H        0.925     0.119     1.618     1.989
    18   1 H        0.924     0.115     1.651     2.009
    19   1 H        0.925     0.082     1.960     2.189
    20   1 H        0.924     0.070     2.088     2.260
    21   1 H        0.924     0.132     1.523     1.930
    22   1 H        0.926     0.114     1.665     2.018
    23   1 H        0.924     0.091     1.867     2.137
    24   1 H        0.860     0.269     0.812     1.411
    25   1 H        0.860     0.280     0.775     1.379
    26   1 H        0.926     0.169     1.269     1.761
    27   1 H        0.926     0.152     1.376     1.835
    28   1 H        0.805     0.355     0.577     1.193
    29  15 P        3.656     0.633   135.059    20.876
    30   8 O        0.808    -0.565    25.313     6.744
    31   8 O        0.808    -0.536    24.617     6.651
    32   8 O        1.656    -0.323    19.421     5.949
    33   6 C        3.860     0.078    19.248     6.239
    34   6 C        3.819     0.098    18.953     6.196
    35   8 O        1.702    -0.293    18.873     5.865
    36   6 C        3.926     0.126    18.479     6.109
    37   8 O        1.657    -0.347    19.847     6.014
    38   6 C        3.825    -0.091    22.224     6.708
    39   6 C        3.747     0.163    18.033     6.057
    40   7 N        2.739    -0.048    22.163     6.992
    41   6 C        2.744     0.325    21.484     7.589
    42   8 O        0.861    -0.494    23.650     6.520
    43   7 N        1.857    -0.316    29.055     7.989
    44   6 C        2.871     0.174    24.271     8.076
    45   7 N        2.665    -0.204    25.447     7.492
    46   6 C        2.910    -0.088    30.214     9.013
    47   6 C        2.860     0.049    26.903     8.502
    48   1 H        0.925     0.071     2.078     2.254
    49   1 H        0.924     0.066     2.134     2.284
    50   1 H        0.924     0.052     2.290     2.367
    51   1 H        0.924     0.055     2.256     2.349
    52   1 H        0.925     0.091     1.874     2.141
    53   1 H        0.925     0.072     2.063     2.246
    54   1 H        0.925     0.091     1.872     2.140
    55   1 H        0.861     0.279     0.778     1.381
    56   1 H        0.860     0.287     0.752     1.358
    57   1 H        0.926     0.161     1.319     1.796
    58   1 H        0.926     0.107     1.722     2.052
    59  15 P        3.633     0.543   138.315    21.126
    60   8 O        0.808    -0.561    25.218     6.732
    61   8 O        0.808    -0.530    24.493     6.634
    62   8 O        1.657    -0.329    19.524     5.965
    63   6 C        3.886     0.083    19.153     6.222
    64   6 C        3.791     0.092    19.071     6.219
    65   8 O        1.701    -0.299    18.985     5.883
    66   6 C        3.935     0.130    18.412     6.098
    67   8 O        1.657    -0.342    19.758     6.001
    68   6 C        3.824    -0.082    22.048     6.682
    69   6 C        3.728     0.170    17.964     6.051
    70   7 N        2.832    -0.046    22.118     6.985
    71   6 C        3.167     0.105    25.348     8.227
    72   7 N        1.870    -0.185    25.826     7.533
    73   6 C        3.233     0.016    26.827     8.407
    74   6 C        2.899     0.158    24.578     8.129
    75   7 N        2.659    -0.202    25.396     7.484
    76   7 N        1.853    -0.270    27.861     7.823
    77   6 C        2.915     0.131    25.139     8.222
    78   7 N        1.826    -0.214    26.504     7.629
    79   6 C        3.128     0.129    24.994     8.185
    80   1 H        0.924     0.068     2.103     2.268
    81   1 H        0.924     0.039     2.458     2.452
    82   1 H        0.925     0.073     2.057     2.243
    83   1 H        0.924     0.035     2.512     2.479
    84   1 H        0.925     0.086     1.921     2.167
    85   1 H        0.925     0.069     2.101     2.267
    86   1 H        0.924     0.079     1.990     2.206
    87   1 H        0.926     0.089     1.889     2.149
    88   1 H        0.861     0.287     0.754     1.360
    89   1 H        0.860     0.282     0.771     1.375
    90   1 H        0.926     0.095     1.827     2.114
    91  15 P        3.642     0.527   138.915    21.172
    92   8 O        0.808    -0.559    25.160     6.724
    93   8 O        0.808    -0.552    24.998     6.702
    94   8 O        1.657    -0.331    19.561     5.971
    95   6 C        3.898     0.086    19.101     6.213
    96   6 C        3.813     0.092    19.047     6.212
    97   8 O        1.703    -0.304    19.055     5.894
    98   6 C        3.934     0.130    18.411     6.098
    99   8 O        1.657    -0.344    19.799     6.007
   100   6 C        3.824    -0.079    21.994     6.674
   101   6 C        3.760     0.169    17.933     6.037
   102   7 N        2.824    -0.040    22.014     6.969
   103   6 C        3.152     0.113    25.254     8.219
   104   7 N        1.874    -0.181    25.723     7.518
   105   6 C        3.202     0.018    27.048     8.473
   106   6 C        2.770     0.268    22.480     7.765
   107   8 O        0.860    -0.336    20.441     6.062
   108   7 N        2.713    -0.176    24.808     7.397
   109   6 C        2.836     0.228    23.228     7.898
   110   7 N        2.663    -0.222    25.854     7.552
   111   7 N        1.844    -0.276    28.004     7.843
   112   6 C        3.102     0.128    25.078     8.206
   113   1 H        0.924     0.070     2.082     2.257
   114   1 H        0.924     0.043     2.415     2.430
   115   1 H        0.924     0.070     2.083     2.257
   116   1 H        0.924     0.030     2.591     2.517
   117   1 H        0.924     0.079     1.985     2.203
   118   1 H        0.925     0.073     2.050     2.239
   119   1 H        0.924     0.081     1.967     2.193
   120   1 H        0.926     0.083     1.944     2.180
   121   1 H        0.861     0.268     0.817     1.416
   122   1 H        0.861     0.280     0.777     1.381
   123   1 H        0.860     0.253     0.871     1.462
   124  15 P        3.625     0.528   138.852    21.167
   125   8 O        0.808    -0.561    25.218     6.732
   126   8 O        0.808    -0.551    24.968     6.698
   127   8 O        1.657    -0.326    19.466     5.956
   128   6 C        3.889     0.080    19.199     6.229
   129   6 C        3.801     0.089    19.113     6.224
   130   8 O        1.701    -0.300    18.987     5.883
   131   6 C        3.934     0.132    18.390     6.094
   132   8 O        1.657    -0.343    19.779     6.004
   133   6 C        3.828    -0.079    21.992     6.673
   134   6 C        3.746     0.166    18.001     6.052
   135   7 N        2.828    -0.039    21.985     6.964
   136   6 C        3.157     0.116    25.167     8.203
   137   7 N        1.874    -0.198    26.131     7.578
   138   6 C        3.212     0.009    27.158     8.482
   139   6 C        2.770     0.265    22.536     7.775
   140   8 O        0.860    -0.346    20.626     6.089
   141   7 N        2.714    -0.170    24.671     7.377
   142   6 C        2.835     0.228    23.222     7.897
   143   7 N        2.663    -0.216    25.720     7.532
   144   7 N        1.844    -0.274    27.952     7.835
   145   6 C        3.099     0.123    25.197     8.226
   146   1 H        0.924     0.074     2.045     2.236
   147   1 H        0.925     0.043     2.412     2.429
   148   1 H        0.924     0.077     2.007     2.215
   149   1 H        0.924     0.029     2.606     2.525
   150   1 H        0.924     0.078     2.000     2.212
   151   1 H        0.925     0.075     2.033     2.230
   152   1 H        0.924     0.087     1.907     2.160
   153   1 H        0.926     0.073     2.052     2.240
   154   1 H        0.861     0.273     0.799     1.400
   155   1 H        0.861     0.284     0.763     1.368
   156   1 H        0.860     0.249     0.887     1.476
   157  15 P        3.622     0.533   138.664    21.153
   158   8 O        0.808    -0.562    25.229     6.733
   159   8 O        0.808    -0.553    25.019     6.705
   160   8 O        1.657    -0.327    19.495     5.960
   161   6 C        3.887     0.080    19.207     6.231
   162   6 C        3.797     0.090    19.095     6.222
   163   8 O        1.701    -0.302    19.030     5.890
   164   6 C        3.931     0.131    18.397     6.096
   165   8 O        1.657    -0.337    19.665     5.986
   166   6 C        3.827    -0.079    21.992     6.673
   167   6 C        3.738     0.168    17.974     6.050
   168   7 N        2.834    -0.047    22.146     6.989
   169   6 C        3.164     0.113    25.196     8.204
   170   7 N        1.871    -0.213    26.475     7.627
   171   6 C        3.229     0.011    26.963     8.432
   172   6 C        2.897     0.157    24.611     8.134
   173   7 N        2.659    -0.202    25.401     7.485
   174   7 N        1.854    -0.244    27.231     7.734
   175   6 C        2.918     0.130    25.163     8.226
   176   7 N        1.827    -0.210    26.396     7.613
   177   6 C        3.135     0.123    25.103     8.201
   178   1 H        0.924     0.072     2.063     2.246
   179   1 H        0.925     0.043     2.414     2.430
   180   1 H        0.924     0.075     2.029     2.227
   181   1 H        0.924     0.031     2.576     2.510
   182   1 H        0.925     0.073     2.057     2.243
   183   1 H        0.925     0.078     1.997     2.210
   184   1 H        0.924     0.093     1.854     2.130
   185   1 H        0.926     0.062     2.175     2.306
   186   1 H        0.860     0.296     0.724     1.333
   187   1 H        0.860     0.256     0.860     1.453
   188   1 H        0.926     0.125     1.575     1.963
   189  15 P        3.606     0.542   138.362    21.130
   190   8 O        0.808    -0.541    24.737     6.667
   191   8 O        0.808    -0.567    25.360     6.751
   192   8 O        1.657    -0.328    19.511     5.963
   193   6 C        3.872     0.093    19.002     6.198
   194   6 C        3.825     0.097    18.961     6.196
   195   8 O        1.704    -0.316    19.279     5.928
   196   6 C        3.937     0.120    18.572     6.124
   197   8 O        1.657    -0.346    19.828     6.011
   198   6 C        3.819    -0.098    22.362     6.730
   199   6 C        3.758     0.161    18.048     6.057
   200   7 N        2.827    -0.035    21.919     6.953
   201   6 C        3.149     0.112    25.279     8.224
   202   7 N        1.875    -0.189    25.926     7.548
   203   6 C        3.204     0.008    27.240     8.501
   204   6 C        2.770     0.265    22.530     7.774
   205   8 O        0.860    -0.367    21.039     6.150
   206   7 N        2.715    -0.171    24.692     7.380
   207   6 C        2.836     0.219    23.383     7.924
   208   7 N        2.663    -0.208    25.540     7.506
   209   7 N        1.842    -0.248    27.313     7.745
   210   6 C        3.098     0.118    25.295     8.242
   211   1 H        0.924     0.039     2.465     2.455
   212   1 H        0.924     0.058     2.228     2.334
   213   1 H        0.924     0.065     2.139     2.287
   214   1 H        0.924     0.046     2.375     2.410
   215   1 H        0.924     0.097     1.814     2.106
   216   1 H        0.925     0.103     1.758     2.073
   217   1 H        0.924     0.099     1.796     2.096
   218   1 H        0.926     0.087     1.906     2.159
   219   1 H        0.861     0.272     0.803     1.404
   220   1 H        0.861     0.293     0.735     1.343
   221   1 H        0.860     0.282     0.768     1.373
   222  15 P        3.636     0.561   137.646    21.075
   223   8 O        0.808    -0.550    24.951     6.696
   224   8 O        0.808    -0.529    24.458     6.629
   225   8 O        1.657    -0.307    19.139     5.906
   226   6 C        3.882     0.074    19.293     6.245
   227   6 C        3.791     0.087    19.156     6.233
   228   8 O        1.701    -0.277    18.593     5.822
   229   6 C        3.937     0.124    18.508     6.114
   230   8 O        1.657    -0.337    19.671     5.987
   231   6 C        3.823    -0.098    22.358     6.729
   232   6 C        3.729     0.151    18.242     6.097
   233   7 N        2.830    -0.029    21.799     6.934
   234   6 C        3.165     0.103    25.409     8.238
   235   7 N        1.871    -0.197    26.095     7.572
   236   6 C        3.225     0.004    27.165     8.468
   237   6 C        2.894     0.153    24.684     8.146
   238   7 N        2.658    -0.199    25.336     7.476
   239   7 N        1.854    -0.239    27.092     7.715
   240   6 C        2.916     0.121    25.343     8.255
   241   7 N        1.827    -0.173    25.536     7.488
   242   6 C        3.134     0.112    25.333     8.239
   243   1 H        0.924     0.076     2.022     2.224
   244   1 H        0.924     0.052     2.300     2.371
   245   1 H        0.924     0.096     1.824     2.112
   246   1 H        0.924     0.041     2.431     2.438
   247   1 H        0.925     0.090     1.882     2.145
   248   1 H        0.925     0.110     1.696     2.037
   249   1 H        0.925     0.130     1.534     1.937
   250   1 H        0.926     0.095     1.828     2.114
   251   1 H        0.860     0.279     0.781     1.384
   252   1 H        0.860     0.256     0.861     1.454
   253   1 H        0.926     0.140     1.458     1.889
   254  15 P        3.642     0.586   136.732    21.005
   255   8 O        0.808    -0.530    24.493     6.634
   256   8 O        0.808    -0.528    24.439     6.627
   257   8 O        1.657    -0.306    19.111     5.901
   258   6 C        3.896     0.070    19.361     6.255
   259   6 C        3.827     0.088    19.105     6.220
   260   8 O        1.703    -0.283    18.694     5.838
   261   6 C        3.912     0.094    18.972     6.191
   262   8 O        1.657    -0.268    18.459     5.800
   263   6 C        3.823    -0.133    23.031     6.829
   264   6 C        3.761     0.141    18.341     6.105
   265   7 N        2.738    -0.028    21.790     6.933
   266   6 C        2.702     0.306    21.794     7.641
   267   8 O        0.859    -0.396    21.595     6.230
   268   7 N        2.698    -0.175    24.797     7.396
   269   6 C        2.761     0.266    22.514     7.770
   270   8 O        0.859    -0.380    21.292     6.187
   271   6 C        2.950    -0.013    28.342     8.732
   272   6 C        3.756    -0.152    23.491     6.911
   273   6 C        2.846     0.021    27.535     8.600
   274   1 H        0.924     0.079     1.994     2.208
   275   1 H        0.924     0.068     2.107     2.270
   276   1 H        0.924     0.098     1.799     2.097
   277   1 H        0.924     0.094     1.839     2.121
   278   1 H        0.925     0.123     1.589     1.971
[...]
   622   6 C    3.914 --   616 C    1.295   621 N    1.264   613 N    1.153
   623   1 H    0.996 --   606 C    0.969
   624   1 H    0.999 --   606 C    0.970
   625   1 H    0.993 --   607 C    0.955
   626   1 H    0.999 --   609 C    0.963
   627   1 H    0.995 --   611 C    0.968
   628   1 H    0.990 --   611 C    0.962
   629   1 H    0.987 --   612 C    0.946
   630   1 H    0.995 --   614 C    0.954
   631   1 H    0.914 --   618 N    0.842
   632   1 H    0.941 --   618 N    0.922
   633   1 H    0.978 --   620 C    0.938
   634  15 P    5.680 --   636 O    1.709   635 O    1.707   637 O    1.130
                           610 O    1.085
   635   8 O    1.892 --   634 P    1.707
   636   8 O    1.892 --   634 P    1.709
   637   8 O    2.277 --   634 P    1.130   638 C    0.937
   638   6 C    3.923 --   639 C    0.989   655 H    0.966   654 H    0.965
                           637 O    0.937
   639   6 C    3.947 --   638 C    0.989   640 O    0.971   641 C    0.964
                           656 H    0.947
   640   8 O    2.070 --   639 C    0.971   644 C    0.971
   641   6 C    3.910 --   643 C    0.986   639 C    0.964   657 H    0.956
                           642 O    0.913
   642   8 O    2.355 --   666 P    1.219   641 C    0.913
   643   6 C    3.960 --   641 C    0.986   644 C    0.967   658 H    0.965
                           659 H    0.955
   644   6 C    3.907 --   640 O    0.971   643 C    0.967   645 N    0.960
                           660 H    0.938
   645   7 N    3.528 --   653 C    1.208   646 C    1.079   644 C    0.960
                           647 O    0.113
   646   6 C    3.958 --   647 O    1.653   648 N    1.153   645 N    1.079
   647   8 O    1.981 --   646 C    1.653   648 N    0.138   645 N    0.113
   648   7 N    3.514 --   646 C    1.153   649 C    1.146   661 H    0.837
                           650 O    0.145   647 O    0.138
   649   6 C    3.953 --   650 O    1.652   648 N    1.146   651 C    1.066
   650   8 O    2.023 --   649 C    1.652   648 N    0.145
   651   6 C    3.870 --   653 C    1.571   649 C    1.066   652 C    1.047
   652   6 C    3.940 --   651 C    1.047   663 H    0.979   662 H    0.941
                           664 H    0.923
   653   6 C    3.899 --   651 C    1.571   645 N    1.208   665 H    0.947
   654   1 H    0.995 --   638 C    0.965
   655   1 H    0.995 --   638 C    0.966
   656   1 H    0.990 --   639 C    0.947
   657   1 H    0.994 --   641 C    0.956
   658   1 H    0.988 --   643 C    0.965
   659   1 H    0.984 --   643 C    0.955
   660   1 H    0.980 --   644 C    0.938
   661   1 H    0.925 --   648 N    0.837
   662   1 H    0.969 --   652 C    0.941
   663   1 H    0.994 --   652 C    0.979
   664   1 H    0.953 --   652 C    0.923
   665   1 H    0.986 --   653 C    0.947
   666  15 P    5.198 --   668 S    1.320   667 S    1.310   669 O    1.253
                           642 O    1.219
   667  16 S    1.624 --   666 P    1.310   668 S    0.169
   668  16 S    1.635 --   666 P    1.320   667 S    0.169
   669   8 O    2.378 --   666 P    1.253   670 C    0.908
   670   6 C    3.896 --   671 C    0.981   686 H    0.961   685 H    0.959
                           669 O    0.908
   671   6 C    3.940 --   670 C    0.981   672 O    0.977   673 C    0.967
                           687 H    0.936
   672   8 O    2.076 --   671 C    0.977   676 C    0.974
   673   6 C    3.920 --   675 C    0.982   671 C    0.967   688 H    0.954
                           674 O    0.943
   674   8 O    2.254 --   696 P    1.098   673 C    0.943
   675   6 C    3.949 --   673 C    0.982   676 C    0.966   695 H    0.961
                           689 H    0.959
   676   6 C    3.902 --   672 O    0.974   675 C    0.966   677 N    0.958
                           690 H    0.933
   677   7 N    3.538 --   684 C    1.230   678 C    1.061   676 C    0.958
   678   6 C    3.948 --   679 O    1.568   680 N    1.231   677 N    1.061
   679   8 O    1.968 --   678 C    1.568   680 N    0.126
   680   7 N    3.023 --   681 C    1.332   678 C    1.231   679 O    0.126
                           682 N    0.115
   681   6 C    3.964 --   682 N    1.416   680 N    1.332   683 C    1.131
   682   7 N    3.461 --   681 C    1.416   691 H    0.920   692 H    0.853
                           680 N    0.115
   683   6 C    3.866 --   684 C    1.610   681 C    1.131   693 H    0.947
   684   6 C    3.928 --   683 C    1.610   677 N    1.230   694 H    0.939
   685   1 H    0.988 --   670 C    0.959
   686   1 H    0.992 --   670 C    0.961
   687   1 H    0.974 --   671 C    0.936
   688   1 H    0.988 --   673 C    0.954
   689   1 H    0.986 --   675 C    0.959
   690   1 H    0.971 --   676 C    0.933
   691   1 H    0.940 --   682 N    0.920
   692   1 H    0.921 --   682 N    0.853
   693   1 H    0.979 --   683 C    0.947
   694   1 H    0.975 --   684 C    0.939
   695   1 H    0.989 --   675 C    0.961
   696  15 P    5.612 --   698 O    1.686   697 O    1.662   699 O    1.116
                           674 O    1.098
   697   8 O    1.831 --   696 P    1.662
   698   8 O    1.856 --   696 P    1.686
   699   8 O    2.268 --   696 P    1.116   700 C    0.950
   700   6 C    3.924 --   701 C    0.984   717 H    0.966   716 H    0.962
                           699 O    0.950
   701   6 C    3.944 --   700 C    0.984   702 O    0.973   703 C    0.964
                           718 H    0.942
   702   8 O    2.081 --   706 C    0.978   701 C    0.973
   703   6 C    3.898 --   705 C    0.991   701 C    0.964   719 H    0.951
                           704 O    0.897
   704   8 O    2.364 --   728 P    1.239   703 C    0.897
   705   6 C    3.953 --   703 C    0.991   706 C    0.968   720 H    0.954
                           721 H    0.953
   706   6 C    3.915 --   702 O    0.978   705 C    0.968   707 N    0.959
                           722 H    0.939
   707   7 N    3.530 --   715 C    1.209   708 C    1.088   706 C    0.959
                           709 O    0.108
   708   6 C    3.957 --   709 O    1.648   710 N    1.151   707 N    1.088
   709   8 O    1.967 --   708 C    1.648   710 N    0.135   707 N    0.108
   710   7 N    3.520 --   708 C    1.151   711 C    1.137   723 H    0.856
                           712 O    0.143   709 O    0.135
   711   6 C    3.939 --   712 O    1.658   710 N    1.137   713 C    1.060
   712   8 O    2.030 --   711 C    1.658   710 N    0.143
   713   6 C    3.852 --   715 C    1.552   711 C    1.060   714 C    1.054
   714   6 C    3.904 --   713 C    1.054   724 H    0.969   726 H    0.928
                           725 H    0.896
   715   6 C    3.866 --   713 C    1.552   707 N    1.209   727 H    0.934
   716   1 H    0.990 --   700 C    0.962
   717   1 H    0.994 --   700 C    0.966
   718   1 H    0.981 --   701 C    0.942
   719   1 H    0.990 --   703 C    0.951
   720   1 H    0.981 --   705 C    0.954
   721   1 H    0.988 --   705 C    0.953
   722   1 H    0.979 --   706 C    0.939
   723   1 H    0.939 --   710 N    0.856
   724   1 H    0.984 --   714 C    0.969
   725   1 H    0.933 --   714 C    0.896
   726   1 H    0.961 --   714 C    0.928
   727   1 H    0.974 --   715 C    0.934
   728  15 P    5.193 --   730 S    1.317   729 S    1.307   704 O    1.239
                           731 O    1.232
   729  16 S    1.636 --   728 P    1.307   730 S    0.182
   730  16 S    1.645 --   728 P    1.317   729 S    0.182
   731   8 O    2.366 --   728 P    1.232   732 C    0.921
   732   6 C    3.914 --   733 C    0.986   748 H    0.964   747 H    0.960
                           731 O    0.921
   733   6 C    3.949 --   732 C    0.986   734 O    0.975   735 C    0.965
                           749 H    0.946
   734   8 O    2.074 --   733 C    0.975   738 C    0.972
   735   6 C    3.914 --   737 C    0.985   733 C    0.965   750 H    0.957
                           736 O    0.929
   736   8 O    2.250 --   758 P    1.105   735 C    0.929
   737   6 C    3.954 --   735 C    0.985   738 C    0.966   757 H    0.962
                           751 H    0.959
   738   6 C    3.921 --   734 O    0.972   739 N    0.966   737 C    0.966
                           752 H    0.946
   739   7 N    3.532 --   746 C    1.205   740 C    1.067   738 C    0.966
                           741 O    0.100
   740   6 C    3.944 --   741 O    1.552   742 N    1.236   739 N    1.067
   741   8 O    1.954 --   740 C    1.552   742 N    0.129   739 N    0.100
   742   7 N    3.009 --   743 C    1.317   740 C    1.236   741 O    0.129
                           744 N    0.111
   743   6 C    3.959 --   744 N    1.427   742 N    1.317   745 C    1.130
   744   7 N    3.460 --   743 C    1.427   753 H    0.903   754 H    0.858
                           742 N    0.111
   745   6 C    3.873 --   746 C    1.633   743 C    1.130   755 H    0.934
   746   6 C    3.922 --   745 C    1.633   739 N    1.205   756 H    0.936
   747   1 H    0.988 --   732 C    0.960
   748   1 H    0.994 --   732 C    0.964
   749   1 H    0.986 --   733 C    0.946
   750   1 H    0.991 --   735 C    0.957
   751   1 H    0.985 --   737 C    0.959
   752   1 H    0.987 --   738 C    0.946
   753   1 H    0.922 --   744 N    0.903
   754   1 H    0.920 --   744 N    0.858
   755   1 H    0.963 --   745 C    0.934
   756   1 H    0.972 --   746 C    0.936
   757   1 H    0.992 --   737 C    0.962
   758  15 P    5.636 --   760 O    1.714   759 O    1.674   736 O    1.105
                           761 O    1.094
   759   8 O    1.853 --   758 P    1.674
   760   8 O    1.895 --   758 P    1.714
   761   8 O    2.250 --   758 P    1.094   762 C    0.959
   762   6 C    3.934 --   763 C    0.978   778 H    0.969   777 H    0.966
                           761 O    0.959
   763   6 C    3.948 --   762 C    0.978   764 O    0.975   765 C    0.968
                           779 H    0.949
   764   8 O    2.071 --   763 C    0.975   768 C    0.970
   765   6 C    3.924 --   767 C    0.986   763 C    0.968   780 H    0.960
                           766 O    0.937
   766   8 O    2.244 --   788 P    1.094   765 C    0.937
   767   6 C    3.961 --   765 C    0.986   768 C    0.968   782 H    0.964
                           781 H    0.962
   768   6 C    3.919 --   764 O    0.970   767 C    0.968   769 N    0.967
                           783 H    0.943
   769   7 N    3.532 --   776 C    1.212   770 C    1.061   768 C    0.967
                           771 O    0.101
   770   6 C    3.944 --   771 O    1.546   772 N    1.247   769 N    1.061
   771   8 O    1.954 --   770 C    1.546   772 N    0.131   769 N    0.101
   772   7 N    3.021 --   773 C    1.315   770 C    1.247   771 O    0.131
                           774 N    0.106
   773   6 C    3.966 --   774 N    1.433   772 N    1.315   775 C    1.134
   774   7 N    3.443 --   773 C    1.433   785 H    0.899   784 H    0.852
                           772 N    0.106
   775   6 C    3.869 --   776 C    1.618   773 C    1.134   786 H    0.941
   776   6 C    3.924 --   775 C    1.618   769 N    1.212   787 H    0.946
   777   1 H    0.994 --   762 C    0.966
   778   1 H    0.996 --   762 C    0.969
   779   1 H    0.986 --   763 C    0.949
   780   1 H    0.994 --   765 C    0.960
   781   1 H    0.988 --   767 C    0.962
   782   1 H    0.993 --   767 C    0.964
   783   1 H    0.982 --   768 C    0.943
   784   1 H    0.916 --   774 N    0.852
   785   1 H    0.917 --   774 N    0.899
   786   1 H    0.972 --   775 C    0.941
   787   1 H    0.982 --   776 C    0.946
   788  15 P    5.663 --   790 O    1.716   789 O    1.692   791 O    1.111
                           766 O    1.094
   789   8 O    1.876 --   788 P    1.692
   790   8 O    1.899 --   788 P    1.716
   791   8 O    2.268 --   788 P    1.111   792 C    0.953
   792   6 C    3.936 --   793 C    0.985   809 H    0.968   808 H    0.966
                           791 O    0.953
   793   6 C    3.955 --   792 C    0.985   794 O    0.974   795 C    0.966
                           810 H    0.951
   794   8 O    2.077 --   793 C    0.974   798 C    0.972
   795   6 C    3.907 --   797 C    0.990   793 C    0.966   811 H    0.953
                           796 O    0.901
   796   8 O    2.362 --   820 P    1.235   795 C    0.901
   797   6 C    3.971 --   795 C    0.990   798 C    0.976   813 H    0.962
                           812 H    0.960
   798   6 C    3.926 --   797 C    0.976   794 O    0.972   799 N    0.962
                           814 H    0.948
   799   7 N    3.523 --   807 C    1.196   800 C    1.089   798 C    0.962
                           801 O    0.111
   800   6 C    3.955 --   801 O    1.639   802 N    1.155   799 N    1.089
   801   8 O    1.958 --   800 C    1.639   802 N    0.135   799 N    0.111
   802   7 N    3.508 --   800 C    1.155   803 C    1.127   815 H    0.855
                           804 O    0.141   801 O    0.135
   803   6 C    3.943 --   804 O    1.659   802 N    1.127   805 C    1.067
   804   8 O    2.035 --   803 C    1.659   802 N    0.141
   805   6 C    3.851 --   807 C    1.559   803 C    1.067   806 C    1.046
   806   6 C    3.911 --   805 C    1.046   818 H    0.978   817 H    0.929
                           816 H    0.907
   807   6 C    3.867 --   805 C    1.559   799 N    1.196   819 H    0.944
   808   1 H    0.994 --   792 C    0.966
   809   1 H    0.997 --   792 C    0.968
   810   1 H    0.991 --   793 C    0.951
   811   1 H    0.994 --   795 C    0.953
   812   1 H    0.988 --   797 C    0.960
   813   1 H    0.992 --   797 C    0.962
   814   1 H    0.989 --   798 C    0.948
   815   1 H    0.936 --   802 N    0.855
   816   1 H    0.936 --   806 C    0.907
   817   1 H    0.958 --   806 C    0.929
   818   1 H    0.992 --   806 C    0.978
   819   1 H    0.984 --   807 C    0.944
   820  15 P    5.242 --   822 S    1.341   821 S    1.336   823 O    1.237
                           796 O    1.235
   821  16 S    1.627 --   820 P    1.336   822 S    0.148
   822  16 S    1.636 --   820 P    1.341   821 S    0.148
   823   8 O    2.363 --   820 P    1.237   824 C    0.913
   824   6 C    3.913 --   825 C    0.987   843 H    0.966   842 H    0.963
                           823 O    0.913
   825   6 C    3.947 --   824 C    0.987   826 O    0.969   827 C    0.961
                           844 H    0.948
   826   8 O    2.067 --   825 C    0.969   830 C    0.965
   827   6 C    3.935 --   829 C    0.988   845 H    0.963   825 C    0.961
                           828 O    0.944
   828   8 O    2.252 --   853 P    1.085   827 C    0.944
   829   6 C    3.977 --   827 C    0.988   830 C    0.981   852 H    0.966
                           846 H    0.965
   830   6 C    3.930 --   829 C    0.981   826 O    0.965   831 N    0.965
                           847 H    0.945
   831   7 N    3.604 --   832 C    1.215   841 C    1.165   830 C    0.965
   832   6 C    3.854 --   833 N    1.565   831 N    1.215   848 H    0.950
   833   7 N    3.002 --   832 C    1.565   834 C    1.236
   834   6 C    3.840 --   841 C    1.278   833 N    1.236   835 C    1.099
   835   6 C    3.950 --   836 O    1.637   837 N    1.121   834 C    1.099
   836   8 O    1.993 --   835 C    1.637   837 N    0.134
   837   7 N    3.507 --   838 C    1.193   835 C    1.121   849 H    0.832
                           836 O    0.134
   838   6 C    3.959 --   839 N    1.384   840 N    1.305   837 N    1.193
   839   7 N    3.397 --   838 C    1.384   851 H    0.911   850 H    0.849
   840   7 N    2.871 --   838 C    1.305   841 C    1.284
   841   6 C    3.910 --   840 N    1.284   834 C    1.278   831 N    1.165
   842   1 H    0.992 --   824 C    0.963
   843   1 H    0.994 --   824 C    0.966
   844   1 H    0.992 --   825 C    0.948
   845   1 H    0.997 --   827 C    0.963
   846   1 H    0.990 --   829 C    0.965
   847   1 H    0.992 --   830 C    0.945
   848   1 H    0.987 --   832 C    0.950
   849   1 H    0.929 --   837 N    0.832
   850   1 H    0.924 --   839 N    0.849
   851   1 H    0.930 --   839 N    0.911
   852   1 H    0.989 --   829 C    0.966
   853  15 P    5.667 --   855 O    1.719   854 O    1.678   856 O    1.131
                           828 O    1.085
   854   8 O    1.870 --   853 P    1.678
   855   8 O    1.910 --   853 P    1.719
   856   8 O    2.267 --   853 P    1.131   857 C    0.947
   857   6 C    3.916 --   858 C    0.974   876 H    0.966   875 H    0.964
                           856 O    0.947
   858   6 C    3.932 --   857 C    0.974   860 C    0.971   859 O    0.968
                           877 H    0.945
   859   8 O    2.064 --   863 C    0.972   858 C    0.968
   860   6 C    3.960 --   861 O    0.999   862 C    0.982   858 C    0.971
                           878 H    0.960
   861   8 O    1.924 --   860 C    0.999   879 H    0.855
   862   6 C    3.971 --   860 C    0.982   863 C    0.974   880 H    0.969
                           881 H    0.968
   863   6 C    3.910 --   862 C    0.974   859 O    0.972   864 N    0.955
                           882 H    0.938
   864   7 N    3.615 --   865 C    1.240   874 C    1.162   863 C    0.955
   865   6 C    3.867 --   866 N    1.539   864 N    1.240   883 H    0.951
   866   7 N    2.988 --   865 C    1.539   867 C    1.249
   867   6 C    3.833 --   874 C    1.265   866 N    1.249   868 C    1.093
   868   6 C    3.950 --   869 O    1.631   870 N    1.136   867 C    1.093
   869   8 O    1.973 --   868 C    1.631   870 N    0.136
   870   7 N    3.513 --   871 C    1.189   868 C    1.136   884 H    0.833
                           869 O    0.136
   871   6 C    3.957 --   872 N    1.410   873 N    1.287   870 N    1.189
   872   7 N    3.384 --   871 C    1.410   886 H    0.904   885 H    0.839
   873   7 N    2.852 --   874 C    1.301   871 C    1.287
   874   6 C    3.905 --   873 N    1.301   867 C    1.265   864 N    1.162
   875   1 H    0.996 --   857 C    0.964
   876   1 H    0.991 --   857 C    0.966
   877   1 H    0.979 --   858 C    0.945
   878   1 H    0.994 --   860 C    0.960
   879   1 H    0.870 --   861 O    0.855
   880   1 H    0.994 --   862 C    0.969
   881   1 H    0.991 --   862 C    0.968
   882   1 H    0.976 --   863 C    0.938
   883   1 H    0.990 --   865 C    0.951
   884   1 H    0.923 --   870 N    0.833
   885   1 H    0.917 --   872 N    0.839
   886   1 H    0.923 --   872 N    0.904
 ---------------------------------------------------------------------------

Topologies differ in total number of bonds
Writing topology from bond orders to xtbtopo.mol

molecular dipole:
                 x           y           z       tot (Debye)
 q only:      -62.234     -92.299      13.719
   full:      -53.638     -85.429      13.820     258.786
molecular quadrupole (traceless):
                xx          xy          yy          xz          yz          zz
 q only:    -3439.098     282.742     -83.521   -2614.936    1152.704    3522.619
  q+dip:    -3164.618     281.681       7.381   -2285.885    1023.755    3157.237
   full:    -3192.953     283.964     -19.166   -2288.661    1028.627    3212.120


           -------------------------------------------------
          | TOTAL ENERGY            -1782.323370395576 Eh   |
          | GRADIENT NORM               0.554463422897 Eh/α |
          | HOMO-LUMO GAP               0.000353030160 eV   |
           -------------------------------------------------

------------------------------------------------------------------------
 * finished run on 2023/03/20 at 16:12:29.702     
------------------------------------------------------------------------
 total:
 * wall-time:     0 d,  0 h,  1 min, 29.686 sec
 *  cpu-time:     0 d,  0 h, 14 min, 30.400 sec
 * ratio c/w:     9.705 speedup
 SCF:
 * wall-time:     0 d,  0 h,  1 min, 27.472 sec
 *  cpu-time:     0 d,  0 h, 14 min, 21.619 sec
 * ratio c/w:     9.850 speedup

