      -----------------------------------------------------------      
     |                   =====================                   |     
     |                           x T B                           |     
     |                   =====================                   |     
     |                         S. Grimme                         |     
     |          Mulliken Center for Theoretical Chemistry        |     
     |                    University of Bonn                     |     
      -----------------------------------------------------------      

   * xtb version 6.5.1 (579679a) compiled by 'ehlert@majestix' on 2022-07-11

   xtb is free software: you can redistribute it and/or modify it under
   the terms of the GNU Lesser General Public License as published by
   the Free Software Foundation, either version 3 of the License, or
   (at your option) any later version.
   
   xtb is distributed in the hope that it will be useful,
   but WITHOUT ANY WARRANTY; without even the implied warranty of
   MERCHANTABILITY or FITNESS FOR A PARTICULAR PURPOSE.  See the
   GNU Lesser General Public License for more details.
   
   Cite this work as:
   * C. Bannwarth, E. Caldeweyher, S. Ehlert, A. Hansen, P. Pracht,
     J. Seibert, S. Spicher, S. Grimme, WIREs Comput. Mol. Sci., 2020, 11,
     e01493. DOI: 10.1002/wcms.1493
   
   for GFN2-xTB:
   * C. Bannwarth, S. Ehlert and S. Grimme., J. Chem. Theory Comput., 2019,
     15, 1652-1671. DOI: 10.1021/acs.jctc.8b01176
   for GFN1-xTB:
   * S. Grimme, C. Bannwarth, P. Shushkov, J. Chem. Theory Comput., 2017,
     13, 1989-2009. DOI: 10.1021/acs.jctc.7b00118
   for GFN0-xTB:
   * P. Pracht, E. Caldeweyher, S. Ehlert, S. Grimme, ChemRxiv, 2019, preprint.
     DOI: 10.26434/chemrxiv.8326202.v1
   for GFN-FF:
   * S. Spicher and S. Grimme, Angew. Chem. Int. Ed., 2020, 59, 15665-15673.
     DOI: 10.1002/anie.202004239
   
   for ALPB and GBSA implicit solvation:
   * S. Ehlert, M. Stahn, S. Spicher, S. Grimme, J. Chem. Theory Comput.,
     2021, 17, 4250-4261. DOI: 10.1021/acs.jctc.1c00471
   
   for DFT-D4:
   * E. Caldeweyher, C. Bannwarth and S. Grimme, J. Chem. Phys., 2017,
     147, 034112. DOI: 10.1063/1.4993215
   * E. Caldeweyher, S. Ehlert, A. Hansen, H. Neugebauer, S. Spicher,
     C. Bannwarth and S. Grimme, J. Chem. Phys., 2019, 150, 154122.
     DOI: 10.1063/1.5090222
   * E. Caldeweyher, J.-M. Mewes, S. Ehlert and S. Grimme, Phys. Chem. Chem. Phys.
     2020, 22, 8499-8512. DOI: 10.1039/D0CP00502A
   
   for sTDA-xTB:
   * S. Grimme and C. Bannwarth, J. Chem. Phys., 2016, 145, 054103.
     DOI: 10.1063/1.4959605
   
   in the mass-spec context:
   * V. Asgeirsson, C. Bauer and S. Grimme, Chem. Sci., 2017, 8, 4879.
     DOI: 10.1039/c7sc00601b
   * J. Koopman and S. Grimme, ACS Omega 2019, 4, 12, 15120-15133.
     DOI: 10.1021/acsomega.9b02011
   
   for metadynamics refer to:
   * S. Grimme, J. Chem. Theory Comput., 2019, 155, 2847-2862
     DOI: 10.1021/acs.jctc.9b00143
   
   for SPH calculations refer to:
   * S. Spicher and S. Grimme, J. Chem. Theory Comput., 2021, 17, 1701-1714
     DOI: 10.1021/acs.jctc.0c01306
   
   with help from (in alphabetical order)
   P. Atkinson, C. Bannwarth, F. Bohle, G. Brandenburg, E. Caldeweyher
   M. Checinski, S. Dohm, S. Ehlert, S. Ehrlich, I. Gerasimov, C. Hölzer
   A. Katbashev, J. Koopman, C. Lavigne, S. Lehtola, F. März, M. Müller,
   F. Musil, H. Neugebauer, J. Pisarek, C. Plett, P. Pracht, F. Pultar,
   J. Seibert, P. Shushkov, S. Spicher, M. Stahn, M. Steiner, T. Strunk,
   J. Stückrath, T. Rose, and J. Unsleber
   
 * started run on 2023/03/09 at 13:52:04.768     

           -------------------------------------------------
          |                Calculation Setup                |
           -------------------------------------------------

          program call               : /N/u/schandy/BigRed3/bin/xtb-6.5.1/bin/xtb 1kr8.xyz --gbsa water
          hostname                   : nid00057
          coordinate file            : 1kr8.xyz
          omp threads                :                    10

   ID    Z sym.   atoms
    1    8 O      1, 4, 6, 14, 33-35, 38, 40, 45, 63-65, 68, 70, 78, 96-98,
                  101, 103, 128-130, 133, 135, 160-162, 165, 167, 175,
                  193-195, 198, 200, 205
    2    6 C      2, 3, 5, 7, 8, 10, 12, 13, 16, 19, 36, 37, 39, 41, 42, 44,
                  47, 49, 50, 66, 67, 69, 71, 72, 74, 76, 77, 80, 83, 99,
                  100, 102, 104, 105, 107, 109, 110, 113, 115, 131, 132, 134,
                  136, 137, 139, 141, 142, 145, 147, 163, 164, 166, 168, 169,
                  171, 173, 174, 177, 180, 196, 197, 199, 201, 202, 204, 207,
                  209, 210
    3    7 N      9, 11, 15, 17, 18, 43, 46, 48, 73, 75, 79, 81, 82, 106,
                  108, 111, 112, 114, 138, 140, 143, 144, 146, 170, 172, 176,
                  178, 179, 203, 206, 208
    4    1 H      20-31, 51-61, 84-94, 116-126, 148-158, 181-191, 211-228
    5   15 P      32, 62, 95, 127, 159, 192

           -------------------------------------------------
          |                 G F N 2 - x T B                 |
           -------------------------------------------------

        Reference                      10.1021/acs.jctc.8b01176
      * Hamiltonian:
        H0-scaling (s, p, d)           1.850000    2.230000    2.230000
        zeta-weighting                 0.500000
      * Dispersion:
        s8                             2.700000
        a1                             0.520000
        a2                             5.000000
        s9                             5.000000
      * Repulsion:
        kExp                           1.500000    1.000000
        rExp                           1.000000
      * Coulomb:
        alpha                          2.000000
        third order                    shell-resolved
        anisotropic                    true
        a3                             3.000000
        a5                             4.000000
        cn-shift                       1.200000
        cn-exp                         4.000000
        max-rad                        5.000000

      * Solvation model:               GBSA
        Solvent                        water
        Parameter file                 internal GFN2-xTB/GBSA
        Dielectric constant                8.0200E+01
        Reference state                gsolv [1 M gas/solution]
        Free energy shift                  1.8574E-03 Eh       1.1656E+00 kcal/mol
        Temperature                        2.9815E+02 K
        Density                            1.0000E+00 kg/L
        Solvent mass                       1.8000E+01 g/mol
        Interaction kernel             Still
        Born radius scaling (c1)           1.5524E+00
        Born radii integrator          GBOBC
        Born offset                        2.4628E-02 a0       4.6540E-02 AA
        H-bond correction              true
        Ion screening                  false
        Surface tension                    1.0000E-05 Eh       1.5569E+01 dyn/cm
        Grid points                               230 per atom
q/qsh data taken from xtbrestart
CAMM data taken from xtbrestart

          ...................................................
          :                      SETUP                      :
          :.................................................:
          :  # basis functions                 693          :
          :  # atomic orbitals                 687          :
          :  # shells                          377          :
          :  # electrons                       770          :
          :  max. iterations                   250          :
          :  Hamiltonian                  GFN2-xTB          :
          :  restarted?                       true          :
          :  GBSA solvation                   true          :
          :  PC potential                    false          :
          :  electronic temp.          300.0000000     K    :
          :  accuracy                    1.0000000          :
          :  -> integral cutoff          0.2500000E+02      :
          :  -> integral neglect         0.1000000E-07      :
          :  -> SCF convergence          0.1000000E-05 Eh   :
          :  -> wf. convergence          0.1000000E-03 e    :
          :  Broyden damping             0.4000000          :
          ...................................................

 iter      E             dE          RMSdq      gap      omega  full diag
   1   -455.2567369 -0.455257E+03  0.204E-01    2.60       0.0  T
   2   -455.2595885 -0.285155E-02  0.770E-02    2.65       1.0  T
   3   -455.2598259 -0.237416E-03  0.424E-02    2.65       1.0  T
   4   -455.2599425 -0.116556E-03  0.194E-02    2.65       1.0  T
   5   -455.2599735 -0.309894E-04  0.742E-03    2.66       1.0  T
   6   -455.2599760 -0.252556E-05  0.377E-03    2.65       1.8  T
   7   -455.2599770 -0.965680E-06  0.177E-03    2.65       3.7  T
   8   -455.2599771 -0.149269E-06  0.920E-04    2.65       7.2  T
   9   -455.2599771 -0.386864E-07  0.415E-04    2.65      15.9  T

   *** convergence criteria satisfied after 9 iterations ***

         #    Occupation            Energy/Eh            Energy/eV
      -------------------------------------------------------------
         1        2.0000           -0.7847598             -21.3544
       ...           ...                  ...                  ...
       379        2.0000           -0.3894578             -10.5977
       380        2.0000           -0.3863815             -10.5140
       381        2.0000           -0.3851946             -10.4817
       382        2.0000           -0.3780737             -10.2879
       383        2.0000           -0.3779734             -10.2852
       384        2.0000           -0.3769560             -10.2575
       385        2.0000           -0.3744372             -10.1890 (HOMO)
       386                         -0.2768909              -7.5346 (LUMO)
       387                         -0.2732837              -7.4364
       388                         -0.2613454              -7.1116
       389                         -0.2603135              -7.0835
       390                         -0.2563002              -6.9743
       ...                                ...                  ...
       687                          1.3595252              36.9946
      -------------------------------------------------------------
                  HL-Gap            0.0975463 Eh            2.6544 eV
             Fermi-level           -0.3256641 Eh           -8.8618 eV

 SCC (total)                   0 d,  0 h,  0 min,  0.705 sec
 SCC setup                      ...        0 min,  0.009 sec (  1.302%)
 Dispersion                     ...        0 min,  0.015 sec (  2.110%)
 classical contributions        ...        0 min,  0.001 sec (  0.079%)
 integral evaluation            ...        0 min,  0.054 sec (  7.714%)
 iterations                     ...        0 min,  0.453 sec ( 64.166%)
 molecular gradient             ...        0 min,  0.169 sec ( 24.000%)
 printout                       ...        0 min,  0.004 sec (  0.621%)

         :::::::::::::::::::::::::::::::::::::::::::::::::::::
         ::                     SUMMARY                     ::
         :::::::::::::::::::::::::::::::::::::::::::::::::::::
         :: total energy            -450.796295622977 Eh    ::
         :: total w/o Gsasa/hb      -450.718206245214 Eh    ::
         :: gradient norm              0.379055131361 Eh/a0 ::
         :: HOMO-LUMO gap              2.654368840309 eV    ::
         ::.................................................::
         :: SCC energy              -455.259977144567 Eh    ::
         :: -> isotropic ES            1.442120252065 Eh    ::
         :: -> anisotropic ES         -0.074787647483 Eh    ::
         :: -> anisotropic XC          0.099027759512 Eh    ::
         :: -> dispersion             -0.389626487651 Eh    ::
         :: -> Gsolv                  -0.223343563202 Eh    ::
         ::    -> Gelec               -0.145254185439 Eh    ::
         ::    -> Gsasa               -0.010584048443 Eh    ::
         ::    -> Ghb                 -0.069362772447 Eh    ::
         ::    -> Gshift               0.001857443127 Eh    ::
         :: repulsion energy           4.430667973098 Eh    ::
         :: add. restraining           0.000000000000 Eh    ::
         :: total charge               0.000000000000 e     ::
         :::::::::::::::::::::::::::::::::::::::::::::::::::::

           -------------------------------------------------
          |                Property Printout                |
           -------------------------------------------------

    * Orbital Energies and Occupations

         #    Occupation            Energy/Eh            Energy/eV
      -------------------------------------------------------------
         1        2.0000           -0.7847598             -21.3544
       ...           ...                  ...                  ...
       373        2.0000           -0.4073373             -11.0842
       374        2.0000           -0.4052897             -11.0285
       375        2.0000           -0.4010153             -10.9122
       376        2.0000           -0.3980494             -10.8315
       377        2.0000           -0.3929663             -10.6932
       378        2.0000           -0.3898523             -10.6084
       379        2.0000           -0.3894578             -10.5977
       380        2.0000           -0.3863815             -10.5140
       381        2.0000           -0.3851946             -10.4817
       382        2.0000           -0.3780737             -10.2879
       383        2.0000           -0.3779734             -10.2852
       384        2.0000           -0.3769560             -10.2575
       385        2.0000           -0.3744372             -10.1890 (HOMO)
       386                         -0.2768909              -7.5346 (LUMO)
       387                         -0.2732837              -7.4364
       388                         -0.2613454              -7.1116
       389                         -0.2603135              -7.0835
       390                         -0.2563002              -6.9743
       391                         -0.2489080              -6.7731
       392                         -0.2448744              -6.6634
       393                         -0.2429452              -6.6109
       394                         -0.2368048              -6.4438
       395                         -0.2361182              -6.4251
       396                         -0.2350917              -6.3972
       ...                                ...                  ...
       687                          1.3595252              36.9946
      -------------------------------------------------------------
                  HL-Gap            0.0975463 Eh            2.6544 eV
             Fermi-level           -0.3256641 Eh           -8.8618 eV

 * generalized Born model for continuum solvation

     #   Z     Born rad/Å   SASA/Å²    H-bond
     1   8 O        2.239    18.650    -0.003
     2   6 C        2.764     1.732    -0.000
     3   6 C        3.184     0.306    -0.000
     4   8 O        2.845     8.476    -0.001
     5   6 C        3.239     0.306    -0.000
     6   8 O        2.650     3.591    -0.000
     7   6 C        3.247     0.638    -0.000
     8   6 C        3.525     0.160    -0.000
     9   7 N        3.660     0.348    -0.000
    10   6 C        3.140     3.911    -0.000
    11   7 N        2.804    12.807    -0.004
    12   6 C        3.941     3.572    -0.000
    13   6 C        3.437     4.347    -0.000
    14   8 O        2.569    11.063    -0.002
    15   7 N        3.401     2.072    -0.001
    16   6 C        3.652     3.992    -0.000
    17   7 N        2.648     4.486    -0.001
    18   7 N        3.087     6.762    -0.002
    19   6 C        4.116     3.167    -0.000
    20   1 H        2.065    17.638    -0.024
    21   1 H        2.191     8.130    -0.011
    22   1 H        2.134    16.704    -0.022
    23   1 H        2.204    10.256    -0.014
    24   1 H        2.344     7.753    -0.010
    25   1 H        2.354     2.373    -0.003
    26   1 H        2.477     3.504    -0.005
    27   1 H        2.228    11.305    -0.015
    28   1 H        3.284     0.798    -0.001
    29   1 H        2.552     3.714    -0.005
    30   1 H        2.193    21.897    -0.029
    31   1 H        1.979    16.764    -0.022
    32  15 P        3.192     9.990    -0.001
    33   8 O        2.210    12.900    -0.002
    34   8 O        2.192    23.624    -0.003
    35   8 O        2.641     2.149    -0.000
    36   6 C        2.862     0.452    -0.000
    37   6 C        3.333     0.152    -0.000
    38   8 O        3.133     1.656    -0.000
    39   6 C        3.317     0.202    -0.000
    40   8 O        2.680     4.847    -0.001
    41   6 C        3.389     0.257    -0.000
    42   6 C        3.779     0.103    -0.000
    43   7 N        3.834     0.000    -0.000
    44   6 C        3.865     0.000    -0.000
    45   8 O        2.919     3.799    -0.001
    46   7 N        3.898     0.000     0.000
    47   6 C        4.109     0.000     0.000
    48   7 N        2.771     0.645    -0.000
    49   6 C        3.511     0.028    -0.000
    50   6 C        3.503     0.014    -0.000
    51   1 H        2.191     9.902    -0.013
    52   1 H        2.124    14.695    -0.020
    53   1 H        2.257    13.637    -0.018
    54   1 H        2.233     9.006    -0.012
    55   1 H        2.397     7.617    -0.010
    56   1 H        2.505     0.264    -0.000
    57   1 H        2.571     2.561    -0.003
    58   1 H        2.673     2.421    -0.003
    59   1 H        2.263    14.651    -0.020
    60   1 H        2.223    10.509    -0.014
    61   1 H        2.361     7.077    -0.009
    62  15 P        3.242     8.049    -0.001
    63   8 O        2.182    25.098    -0.003
    64   8 O        2.262     9.209    -0.001
    65   8 O        2.730     0.562    -0.000
    66   6 C        2.930     0.452    -0.000
    67   6 C        3.440     0.126    -0.000
    68   8 O        3.420     0.025    -0.000
    69   6 C        3.379     0.352    -0.000
    70   8 O        2.762     3.713    -0.001
    71   6 C        3.341     0.607    -0.000
    72   6 C        4.023     0.000    -0.000
    73   7 N        4.116     0.000    -0.000
    74   6 C        3.272     2.586    -0.000
    75   7 N        2.857    10.976    -0.003
    76   6 C        4.201     0.022    -0.000
    77   6 C        3.430     0.062    -0.000
    78   8 O        2.377    19.309    -0.003
    79   7 N        3.300     0.021    -0.000
    80   6 C        4.108     0.009    -0.000
    81   7 N        2.863     1.865    -0.001
    82   7 N        3.916     0.000    -0.000
    83   6 C        4.874     0.000    -0.000
    84   1 H        2.236     8.832    -0.012
    85   1 H        2.154    12.958    -0.017
    86   1 H        2.285    11.114    -0.015
    87   1 H        2.236     9.651    -0.013
    88   1 H        2.364     7.794    -0.010
    89   1 H        2.367     3.591    -0.005
    90   1 H        2.894     0.000    -0.000
    91   1 H        2.273    10.340    -0.014
    92   1 H        2.435    10.050    -0.013
    93   1 H        2.344    13.127    -0.018
    94   1 H        2.911     1.584    -0.002
    95  15 P        3.272     8.920    -0.001
    96   8 O        2.199    25.044    -0.003
    97   8 O        2.265    11.756    -0.002
    98   8 O        2.753     0.431    -0.000
    99   6 C        3.094     0.060    -0.000
   100   6 C        3.633     0.017    -0.000
   101   8 O        3.277     0.131    -0.000
   102   6 C        3.415     0.073    -0.000
   103   8 O        2.792     1.450    -0.000
   104   6 C        3.184     1.215    -0.000
   105   6 C        3.615     0.239    -0.000
   106   7 N        3.728     0.639    -0.000
   107   6 C        3.272     4.764    -0.000
   108   7 N        2.888     9.791    -0.003
   109   6 C        3.988     3.291    -0.000
   110   6 C        3.409     3.813    -0.000
   111   7 N        2.484     4.165    -0.001
   112   7 N        2.780    12.247    -0.004
   113   6 C        2.891     9.043    -0.000
   114   7 N        2.804    10.561    -0.003
   115   6 C        3.971     3.378    -0.000
   116   1 H        2.510     0.247    -0.000
   117   1 H        2.248    10.224    -0.014
   118   1 H        2.548     0.419    -0.001
   119   1 H        2.322     5.260    -0.007
   120   1 H        2.308     8.881    -0.012
   121   1 H        2.183    15.254    -0.020
   122   1 H        2.434    10.366    -0.014
   123   1 H        2.358     5.327    -0.007
   124   1 H        2.134    20.524    -0.027
   125   1 H        2.164    16.097    -0.022
   126   1 H        2.110    22.522    -0.030
   127  15 P        3.198     9.078    -0.001
   128   8 O        2.230    14.352    -0.002
   129   8 O        2.183    24.722    -0.003
   130   8 O        2.549     7.979    -0.001
   131   6 C        2.851     0.412    -0.000
   132   6 C        3.242     0.316    -0.000
   133   8 O        3.084     3.429    -0.000
   134   6 C        3.263     0.354    -0.000
   135   8 O        2.664     4.150    -0.001
   136   6 C        3.221     0.834    -0.000
   137   6 C        3.671     0.038    -0.000
   138   7 N        3.918     0.007    -0.000
   139   6 C        3.347     2.226    -0.000
   140   7 N        3.330     0.593    -0.000
   141   6 C        4.951     0.000     0.000
   142   6 C        4.342     0.000    -0.000
   143   7 N        3.127     0.000    -0.000
   144   7 N        3.137     4.083    -0.001
   145   6 C        3.070     5.414    -0.000
   146   7 N        2.960     7.751    -0.002
   147   6 C        4.497     0.003    -0.000
   148   1 H        2.107    15.832    -0.021
   149   1 H        2.242     7.629    -0.010
   150   1 H        2.167    16.277    -0.022
   151   1 H        2.197    10.834    -0.014
   152   1 H        2.293     8.839    -0.012
   153   1 H        2.289     6.900    -0.009
   154   1 H        2.585     2.103    -0.003
   155   1 H        2.270    15.258    -0.020
   156   1 H        2.783     1.225    -0.002
   157   1 H        3.344     0.000     0.000
   158   1 H        2.171    22.522    -0.030
   159  15 P        3.199    10.573    -0.001
   160   8 O        2.210    15.165    -0.002
   161   8 O        2.193    22.988    -0.003
   162   8 O        2.630     3.814    -0.001
   163   6 C        2.892     0.430    -0.000
   164   6 C        3.364     0.050    -0.000
   165   8 O        3.127     0.270    -0.000
   166   6 C        3.289     0.066    -0.000
   167   8 O        2.656     3.975    -0.001
   168   6 C        3.317    -0.002     0.000
   169   6 C        3.721     0.006    -0.000
   170   7 N        3.850     0.023    -0.000
   171   6 C        3.123     4.236    -0.000
   172   7 N        2.790    14.971    -0.005
   173   6 C        4.158     0.453    -0.000
   174   6 C        3.645     0.400    -0.000
   175   8 O        2.623    10.085    -0.001
   176   7 N        3.862     0.000     0.000
   177   6 C        4.461     0.000     0.000
   178   7 N        2.997     0.192    -0.000
   179   7 N        3.582     1.130    -0.000
   180   6 C        4.703     0.000     0.000
   181   1 H        2.229     9.290    -0.012
   182   1 H        2.156    11.485    -0.015
   183   1 H        2.310     9.754    -0.013
   184   1 H        2.223    11.967    -0.016
   185   1 H        2.317     6.029    -0.008
   186   1 H        2.530     0.001    -0.000
   187   1 H        2.654     3.601    -0.005
   188   1 H        2.180    17.562    -0.023
   189   1 H        3.736     0.000     0.000
   190   1 H        2.927     1.210    -0.002
   191   1 H        2.410    12.289    -0.016
   192  15 P        3.214    10.087    -0.001
   193   8 O        2.209    15.049    -0.002
   194   8 O        2.209    21.780    -0.003
   195   8 O        2.689     1.066    -0.000
   196   6 C        2.879     0.491    -0.000
   197   6 C        3.208     0.165    -0.000
   198   8 O        2.934     5.118    -0.001
   199   6 C        3.105     0.467    -0.000
   200   8 O        2.279    14.900    -0.002
   201   6 C        3.031     1.475    -0.000
   202   6 C        3.379     0.470    -0.000
   203   7 N        3.450     0.479    -0.000
   204   6 C        3.389     4.268    -0.000
   205   8 O        2.626     8.693    -0.001
   206   7 N        3.395     2.565    -0.001
   207   6 C        3.588     3.607    -0.000
   208   7 N        2.628     3.819    -0.001
   209   6 C        3.202     4.580    -0.000
   210   6 C        3.263     2.560    -0.000
   211   1 H        2.201     8.883    -0.012
   212   1 H        2.147    10.417    -0.014
   213   1 H        2.185    14.692    -0.020
   214   1 H        2.198    11.807    -0.016
   215   1 H        1.941    19.622    -0.026
   216   1 H        2.248    11.621    -0.016
   217   1 H        2.129    17.139    -0.023
   218   1 H        2.276    12.680    -0.017
   219   1 H        2.543     3.691    -0.005
   220   1 H        2.199    16.357    -0.022
   221   1 H        2.145    13.796    -0.018
   222   1 H        2.333     4.468    -0.006
   223   1 H        1.979    15.752    -0.021
   224   1 H        1.946    17.949    -0.024
   225   1 H        1.916    21.406    -0.029
   226   1 H        1.911    20.949    -0.028
   227   1 H        1.934    17.305    -0.023
   228   1 H        1.945    16.356    -0.022

 total SASA / Å² :     1484.317

     #   Z          covCN         q      C6AA      α(0)
     1   8 O        1.655    -0.468    22.206     6.361
     2   6 C        3.675     0.062    19.755     6.369
     3   6 C        3.784     0.085    19.194     6.241
     4   8 O        1.699    -0.323    19.394     5.946
     5   6 C        3.944     0.111    18.697     6.144
     6   8 O        1.658    -0.346    19.826     6.011
     7   6 C        3.824    -0.093    22.251     6.712
     8   6 C        3.713     0.166    18.048     6.070
     9   7 N        2.816    -0.077    22.738     7.082
    10   6 C        3.156     0.092    25.672     8.285
    11   7 N        1.873    -0.287    28.294     7.885
    12   6 C        3.205    -0.009    27.640     8.563
    13   6 C        2.770     0.267    22.494     7.767
    14   8 O        0.860    -0.503    23.858     6.549
    15   7 N        2.715    -0.200    25.342     7.477
    16   6 C        2.829     0.241    22.975     7.854
    17   7 N        2.661    -0.279    27.209     7.747
    18   7 N        1.841    -0.361    30.245     8.150
    19   6 C        3.092     0.127    25.112     8.214
    20   1 H        0.924     0.066     2.133     2.284
    21   1 H        0.924     0.037     2.486     2.465
    22   1 H        0.924     0.086     1.915     2.164
    23   1 H        0.924     0.058     2.226     2.333
    24   1 H        0.925     0.072     2.061     2.245
    25   1 H        0.925     0.077     2.009     2.216
    26   1 H        0.924     0.080     1.984     2.202
    27   1 H        0.925     0.057     2.238     2.339
    28   1 H        0.861     0.238     0.930     1.511
    29   1 H        0.860     0.257     0.858     1.451
    30   1 H        0.860     0.250     0.883     1.472
    31   1 H        0.805     0.339     0.614     1.231
    32  15 P        3.738     0.737   131.440    20.595
    33   8 O        1.614    -0.384    20.561     6.120
    34   8 O        0.808    -0.567    25.350     6.749
    35   8 O        1.657    -0.335    19.639     5.982
    36   6 C        3.890     0.057    19.580     6.291
    37   6 C        3.816     0.095    19.005     6.205
    38   8 O        1.706    -0.323    19.401     5.947
    39   6 C        3.909     0.104    18.820     6.166
    40   8 O        1.657    -0.353    19.969     6.032
    41   6 C        3.837    -0.091    22.209     6.704
    42   6 C        3.740     0.174    17.881     6.033
    43   7 N        2.736    -0.084    22.867     7.102
    44   6 C        2.741     0.331    21.371     7.569
    45   8 O        0.861    -0.505    23.899     6.555
    46   7 N        1.859    -0.366    30.402     8.172
    47   6 C        2.870     0.190    23.943     8.021
    48   7 N        2.665    -0.247    26.441     7.637
    49   6 C        2.907    -0.098    30.454     9.049
    50   6 C        2.863     0.039    27.118     8.536
    51   1 H        0.924     0.086     1.920     2.167
    52   1 H        0.924     0.087     1.909     2.161
    53   1 H        0.924     0.082     1.961     2.190
    54   1 H        0.924     0.074     2.046     2.237
    55   1 H        0.925     0.079     1.992     2.207
    56   1 H        0.925     0.074     2.041     2.234
    57   1 H        0.924     0.069     2.098     2.265
    58   1 H        0.860     0.255     0.866     1.458
    59   1 H        0.860     0.231     0.960     1.535
    60   1 H        0.926     0.086     1.918     2.166
    61   1 H        0.926     0.086     1.920     2.167
    62  15 P        3.709     0.750   130.993    20.560
    63   8 O        0.808    -0.580    25.663     6.791
    64   8 O        1.614    -0.385    20.590     6.124
    65   8 O        1.657    -0.326    19.474     5.957
    66   6 C        3.887     0.063    19.481     6.275
    67   6 C        3.789     0.090    19.099     6.224
    68   8 O        1.700    -0.317    19.290     5.930
    69   6 C        3.925     0.105    18.807     6.163
    70   8 O        1.658    -0.355    19.997     6.037
    71   6 C        3.825    -0.100    22.381     6.732
    72   6 C        3.725     0.166    18.023     6.062
    73   7 N        2.819    -0.066    22.514     7.047
    74   6 C        3.163     0.093    25.619     8.273
    75   7 N        1.874    -0.271    27.877     7.827
    76   6 C        3.197    -0.011    27.739     8.585
    77   6 C        2.770     0.267    22.500     7.769
    78   8 O        0.860    -0.489    23.536     6.505
    79   7 N        2.708    -0.196    25.259     7.464
    80   6 C        2.827     0.237    23.054     7.868
    81   7 N        2.661    -0.258    26.688     7.673
    82   7 N        1.847    -0.355    30.097     8.131
    83   6 C        3.107     0.126    25.111     8.210
    84   1 H        0.924     0.075     2.026     2.226
    85   1 H        0.924     0.080     1.982     2.201
    86   1 H        0.924     0.099     1.797     2.096
    87   1 H        0.924     0.073     2.049     2.238
    88   1 H        0.925     0.098     1.800     2.098
    89   1 H        0.925     0.084     1.939     2.178
    90   1 H        0.924     0.069     2.101     2.267
    91   1 H        0.925     0.077     2.014     2.220
    92   1 H        0.860     0.230     0.963     1.537
    93   1 H        0.860     0.233     0.952     1.529
    94   1 H        0.860     0.243     0.910     1.494
    95  15 P        3.713     0.766   130.458    20.518
    96   8 O        0.808    -0.580    25.670     6.792
    97   8 O        1.614    -0.384    20.571     6.122
    98   8 O        1.657    -0.331    19.568     5.972
    99   6 C        3.890     0.074    19.298     6.245
   100   6 C        3.816     0.103    18.881     6.184
   101   8 O        1.702    -0.315    19.265     5.926
   102   6 C        3.942     0.107    18.769     6.156
   103   8 O        1.658    -0.357    20.042     6.044
   104   6 C        3.828    -0.096    22.308     6.721
   105   6 C        3.756     0.174    17.867     6.027
   106   7 N        2.833    -0.069    22.575     7.057
   107   6 C        3.171     0.102    25.402     8.234
   108   7 N        1.872    -0.292    28.423     7.903
   109   6 C        3.233     0.011    26.924     8.422
   110   6 C        2.903     0.175    24.252     8.075
   111   7 N        2.662    -0.251    26.534     7.650
   112   7 N        1.857    -0.320    29.143     8.001
   113   6 C        2.920     0.144    24.860     8.176
   114   7 N        1.827    -0.341    29.700     8.075
   115   6 C        3.135     0.134    24.866     8.162
   116   1 H        0.925     0.059     2.210     2.325
   117   1 H        0.924     0.066     2.134     2.284
   118   1 H        0.924     0.067     2.122     2.278
   119   1 H        0.924     0.059     2.206     2.323
   120   1 H        0.924     0.091     1.873     2.140
   121   1 H        0.924     0.083     1.946     2.182
   122   1 H        0.924     0.072     2.068     2.249
   123   1 H        0.926     0.059     2.216     2.328
   124   1 H        0.860     0.247     0.895     1.482
   125   1 H        0.860     0.232     0.956     1.532
   126   1 H        0.926     0.048     2.349     2.397
   127  15 P        3.738     0.742   131.293    20.583
   128   8 O        1.614    -0.361    20.126     6.055
   129   8 O        0.808    -0.547    24.874     6.685
   130   8 O        1.657    -0.337    19.672     5.987
   131   6 C        3.902     0.070    19.360     6.254
   132   6 C        3.787     0.090    19.109     6.226
   133   8 O        1.705    -0.324    19.416     5.949
   134   6 C        3.939     0.110    18.726     6.149
   135   8 O        1.657    -0.342    19.758     6.000
   136   6 C        3.821    -0.091    22.224     6.709
   137   6 C        3.744     0.175    17.873     6.031
   138   7 N        2.830    -0.069    22.571     7.056
   139   6 C        3.160     0.099    25.499     8.255
   140   7 N        1.870    -0.293    28.457     7.907
   141   6 C        3.223     0.009    27.071     8.457
   142   6 C        2.906     0.171    24.328     8.088
   143   7 N        2.665    -0.253    26.587     7.658
   144   7 N        1.860    -0.316    29.052     7.989
   145   6 C        2.922     0.139    24.974     8.195
   146   7 N        1.827    -0.327    29.330     8.025
   147   6 C        3.138     0.139    24.761     8.144
   148   1 H        0.924     0.070     2.086     2.259
   149   1 H        0.924     0.062     2.174     2.306
   150   1 H        0.924     0.091     1.870     2.138
   151   1 H        0.924     0.063     2.166     2.301
   152   1 H        0.924     0.075     2.035     2.231
   153   1 H        0.925     0.083     1.946     2.181
   154   1 H        0.924     0.072     2.067     2.249
   155   1 H        0.925     0.065     2.144     2.290
   156   1 H        0.860     0.234     0.948     1.525
   157   1 H        0.860     0.213     1.040     1.597
   158   1 H        0.926     0.056     2.246     2.343
   159  15 P        3.724     0.731   131.648    20.611
   160   8 O        1.614    -0.368    20.253     6.074
   161   8 O        0.808    -0.555    25.067     6.711
   162   8 O        1.657    -0.341    19.739     5.998
   163   6 C        3.896     0.058    19.556     6.286
   164   6 C        3.827     0.101    18.901     6.186
   165   8 O        1.702    -0.322    19.379     5.943
   166   6 C        3.889     0.113    18.688     6.146
   167   8 O        1.657    -0.343    19.769     6.002
   168   6 C        3.822    -0.096    22.305     6.721
   169   6 C        3.753     0.171    17.919     6.036
   170   7 N        2.809    -0.082    22.829     7.096
   171   6 C        3.166     0.090    25.664     8.278
   172   7 N        1.878    -0.276    28.022     7.847
   173   6 C        3.195    -0.007    27.655     8.574
   174   6 C        2.770     0.267    22.489     7.767
   175   8 O        0.860    -0.490    23.556     6.507
   176   7 N        2.714    -0.195    25.228     7.460
   177   6 C        2.828     0.245    22.902     7.842
   178   7 N        2.662    -0.272    27.028     7.721
   179   7 N        1.843    -0.375    30.634     8.203
   180   6 C        3.111     0.127    25.069     8.202
   181   1 H        0.924     0.081     1.973     2.196
   182   1 H        0.924     0.084     1.941     2.179
   183   1 H        0.924     0.073     2.056     2.242
   184   1 H        0.924     0.066     2.134     2.284
   185   1 H        0.925     0.073     2.054     2.241
   186   1 H        0.925     0.083     1.951     2.184
   187   1 H        0.924     0.067     2.124     2.279
   188   1 H        0.925     0.063     2.159     2.298
   189   1 H        0.861     0.239     0.929     1.510
   190   1 H        0.860     0.255     0.866     1.458
   191   1 H        0.860     0.237     0.937     1.516
   192  15 P        3.703     0.748   131.061    20.565
   193   8 O        1.614    -0.375    20.393     6.095
   194   8 O        0.808    -0.571    25.434     6.760
   195   8 O        1.657    -0.350    19.898     6.022
   196   6 C        3.898     0.057    19.566     6.288
   197   6 C        3.782     0.089    19.119     6.229
   198   8 O        1.701    -0.328    19.490     5.960
   199   6 C        3.738     0.105    18.928     6.208
   200   8 O        1.654    -0.480    22.465     6.398
   201   6 C        3.812    -0.090    22.208     6.708
   202   6 C        3.716     0.167    18.030     6.066
   203   7 N        2.737    -0.085    22.889     7.106
   204   6 C        2.738     0.331    21.372     7.569
   205   8 O        0.861    -0.513    24.072     6.578
   206   7 N        1.857    -0.362    30.282     8.156
   207   6 C        2.869     0.193    23.897     8.013
   208   7 N        2.665    -0.255    26.615     7.662
   209   6 C        2.910    -0.099    30.496     9.055
   210   6 C        2.856     0.040    27.103     8.533
   211   1 H        0.924     0.075     2.035     2.231
   212   1 H        0.924     0.072     2.061     2.245
   213   1 H        0.924     0.077     2.011     2.217
   214   1 H        0.924     0.049     2.332     2.388
   215   1 H        0.805     0.349     0.591     1.207
   216   1 H        0.925     0.069     2.100     2.266
   217   1 H        0.924     0.092     1.864     2.135
   218   1 H        0.924     0.080     1.981     2.201
   219   1 H        0.860     0.250     0.885     1.474
   220   1 H        0.860     0.226     0.981     1.551
   221   1 H        0.926     0.078     2.003     2.213
   222   1 H        0.925     0.089     1.890     2.150
   223   1 H        0.898     0.442     0.408     1.000
   224   1 H        0.897     0.454     0.391     0.978
   225   1 H        0.898     0.458     0.386     0.972
   226   1 H        0.899     0.462     0.380     0.965
   227   1 H        0.899     0.453     0.393     0.980
   228   1 H        0.898     0.450     0.396     0.985

 Mol. C6AA /au·bohr⁶  :     686713.853380
 Mol. C8AA /au·bohr⁸  :   17047412.553489
 Mol. α(0) /au        :       1256.419730


Wiberg/Mayer (AO) data.
largest (>0.10) Wiberg bond orders for each atom

 ---------------------------------------------------------------------------
     #   Z sym  total        # sym  WBO       # sym  WBO       # sym  WBO
 ---------------------------------------------------------------------------
     1   8 O    1.938 --     2 C    1.011    31 H    0.868
     2   6 C    3.961 --     1 O    1.011     3 C    0.974    20 H    0.970
                            21 H    0.967
     3   6 C    3.943 --     2 C    0.974     5 C    0.973     4 O    0.964
                            22 H    0.954
     4   8 O    2.079 --     8 C    0.972     3 C    0.964
     5   6 C    3.931 --     7 C    0.992     3 C    0.973    23 H    0.961
                             6 O    0.939
     6   8 O    2.259 --    32 P    1.106     5 C    0.939
     7   6 C    3.990 --     5 C    0.992     8 C    0.987    25 H    0.968
                            24 H    0.966
     8   6 C    3.936 --     7 C    0.987     4 O    0.972    26 H    0.954
                             9 N    0.953
     9   7 N    3.581 --    10 C    1.184    19 C    1.168     8 C    0.953
                            11 N    0.112
    10   6 C    3.944 --    11 N    1.620     9 N    1.184    27 H    0.957
    11   7 N    3.018 --    10 C    1.620    12 C    1.188     9 N    0.112
    12   6 C    3.962 --    19 C    1.350    11 N    1.188    13 C    1.134
    13   6 C    3.949 --    14 O    1.561    15 N    1.137    12 C    1.134
    14   8 O    1.961 --    13 C    1.561    15 N    0.134
    15   7 N    3.513 --    16 C    1.169    13 C    1.137    28 H    0.856
                            14 O    0.134
    16   6 C    3.967 --    18 N    1.364    17 N    1.342    15 N    1.169
    17   7 N    3.393 --    16 C    1.342    30 H    0.918    29 H    0.862
                            18 N    0.108
    18   7 N    2.960 --    16 C    1.364    19 C    1.237    17 N    0.108
    19   6 C    3.959 --    12 C    1.350    18 N    1.237     9 N    1.168
    20   1 H    0.996 --     2 C    0.970
    21   1 H    0.999 --     2 C    0.967
    22   1 H    0.992 --     3 C    0.954
    23   1 H    0.996 --     5 C    0.961
    24   1 H    0.994 --     7 C    0.966
    25   1 H    0.994 --     7 C    0.968
    26   1 H    0.994 --     8 C    0.954
    27   1 H    0.996 --    10 C    0.957
    28   1 H    0.943 --    15 N    0.856
    29   1 H    0.934 --    17 N    0.862
    30   1 H    0.936 --    17 N    0.918
    31   1 H    0.885 --     1 O    0.868
    32  15 P    5.462 --    34 O    1.788    33 O    1.381    35 O    1.122
                             6 O    1.106
    33   8 O    2.289 --    32 P    1.381   226 H    0.748
    34   8 O    1.992 --    32 P    1.788
    35   8 O    2.263 --    32 P    1.122    36 C    0.939
    36   6 C    3.923 --    37 C    0.992    52 H    0.964    51 H    0.963
                            35 O    0.939
    37   6 C    3.947 --    36 C    0.992    38 O    0.965    39 C    0.963
                            53 H    0.950
    38   8 O    2.063 --    37 C    0.965    42 C    0.965
    39   6 C    3.930 --    41 C    0.994    37 C    0.963    54 H    0.960
                            40 O    0.934
    40   8 O    2.249 --    62 P    1.100    39 C    0.934
    41   6 C    3.989 --    39 C    0.994    42 C    0.984    55 H    0.965
                            56 H    0.964
    42   6 C    3.931 --    41 C    0.984    38 O    0.965    43 N    0.959
                            57 H    0.951
    43   7 N    3.574 --    50 C    1.206    44 C    1.074    42 C    0.959
                            45 O    0.112
    44   6 C    3.953 --    45 O    1.548    46 N    1.239    43 N    1.074
    45   8 O    1.949 --    44 C    1.548    46 N    0.121    43 N    0.112
    46   7 N    3.054 --    47 C    1.349    44 C    1.239    45 O    0.121
                            48 N    0.112
    47   6 C    3.969 --    48 N    1.380    46 N    1.349    49 C    1.149
    48   7 N    3.455 --    47 C    1.380    59 H    0.926    58 H    0.868
                            46 N    0.112
    49   6 C    3.977 --    50 C    1.654    47 C    1.149    60 H    0.960
    50   6 C    3.961 --    49 C    1.654    43 N    1.206    61 H    0.954
    51   1 H    0.992 --    36 C    0.963
    52   1 H    0.992 --    36 C    0.964
    53   1 H    0.992 --    37 C    0.950
    54   1 H    0.994 --    39 C    0.960
    55   1 H    0.993 --    41 C    0.965
    56   1 H    0.994 --    41 C    0.964
    57   1 H    0.995 --    42 C    0.951
    58   1 H    0.935 --    48 N    0.868
    59   1 H    0.946 --    48 N    0.926
    60   1 H    0.992 --    49 C    0.960
    61   1 H    0.992 --    50 C    0.954
    62  15 P    5.426 --    63 O    1.760    64 O    1.366    65 O    1.118
                            40 O    1.100
    63   8 O    1.976 --    62 P    1.760
    64   8 O    2.282 --    62 P    1.366   225 H    0.753
    65   8 O    2.260 --    62 P    1.118    66 C    0.941
    66   6 C    3.921 --    67 C    0.983    84 H    0.964    85 H    0.964
                            65 O    0.941
    67   6 C    3.946 --    66 C    0.983    69 C    0.971    68 O    0.967
                            86 H    0.948
    68   8 O    2.090 --    67 C    0.967    72 C    0.965
    69   6 C    3.930 --    71 C    0.991    67 C    0.971    87 H    0.957
                            70 O    0.934
    70   8 O    2.249 --    95 P    1.101    69 C    0.934
    71   6 C    3.985 --    69 C    0.991    72 C    0.989    88 H    0.962
                            89 H    0.962
    72   6 C    3.934 --    71 C    0.989    68 O    0.965    73 N    0.957
                            90 H    0.951
    73   7 N    3.590 --    74 C    1.190    83 C    1.171    72 C    0.957
                            75 N    0.108
    74   6 C    3.939 --    75 N    1.613    73 N    1.190    91 H    0.955
    75   7 N    3.012 --    74 C    1.613    76 C    1.189    73 N    0.108
    76   6 C    3.963 --    83 C    1.360    75 N    1.189    77 C    1.124
    77   6 C    3.947 --    78 O    1.608    76 C    1.124    79 N    1.105
    78   8 O    1.943 --    77 C    1.608    79 N    0.134
    79   7 N    3.498 --    80 C    1.163    77 C    1.105    92 H    0.911
                            78 O    0.134
    80   6 C    3.968 --    82 N    1.373    81 N    1.335    79 N    1.163
    81   7 N    3.406 --    80 C    1.335    93 H    0.923    94 H    0.877
                            82 N    0.109
    82   7 N    3.002 --    80 C    1.373    83 C    1.218    81 N    0.109
    83   6 C    3.959 --    76 C    1.360    82 N    1.218    73 N    1.171
    84   1 H    0.994 --    66 C    0.964
    85   1 H    0.993 --    66 C    0.964
    86   1 H    0.989 --    67 C    0.948
    87   1 H    0.994 --    69 C    0.957
    88   1 H    0.990 --    71 C    0.962
    89   1 H    0.993 --    71 C    0.962
    90   1 H    0.995 --    72 C    0.951
    91   1 H    0.993 --    74 C    0.955
    92   1 H    0.946 --    79 N    0.911
    93   1 H    0.945 --    81 N    0.923
    94   1 H    0.940 --    81 N    0.877
    95  15 P    5.408 --    96 O    1.760    97 O    1.357    98 O    1.110
                            70 O    1.101
    96   8 O    1.979 --    95 P    1.760
    97   8 O    2.275 --    95 P    1.357   224 H    0.754
    98   8 O    2.251 --    95 P    1.110    99 C    0.946
    99   6 C    3.929 --   100 C    0.984   117 H    0.967   116 H    0.966
                            98 O    0.946
   100   6 C    3.955 --    99 C    0.984   101 O    0.973   102 C    0.968
                           118 H    0.951
   101   8 O    2.075 --   100 C    0.973   105 C    0.966
   102   6 C    3.934 --   104 C    0.990   100 C    0.968   119 H    0.950
                           103 O    0.940
   103   8 O    2.241 --   127 P    1.088   102 C    0.940
   104   6 C    3.986 --   102 C    0.990   105 C    0.980   121 H    0.970
                           120 H    0.966
   105   6 C    3.935 --   104 C    0.980   106 N    0.967   101 O    0.966
                           122 H    0.953
   106   7 N    3.592 --   107 C    1.206   115 C    1.149   105 C    0.967
                           108 N    0.115
   107   6 C    3.953 --   108 N    1.609   106 N    1.206   123 H    0.955
   108   7 N    3.007 --   107 C    1.609   109 C    1.178   106 N    0.115
   109   6 C    3.970 --   115 C    1.337   110 C    1.190   108 N    1.178
   110   6 C    3.973 --   111 N    1.329   112 N    1.314   109 C    1.190
   111   7 N    3.428 --   110 C    1.329   125 H    0.928   124 H    0.918
   112   7 N    3.027 --   113 C    1.417   110 C    1.314
   113   6 C    3.968 --   114 N    1.456   112 N    1.417   126 H    0.957
   114   7 N    3.003 --   113 C    1.456   115 C    1.261
   115   6 C    3.956 --   109 C    1.337   114 N    1.261   106 N    1.149
   116   1 H    0.996 --    99 C    0.966
   117   1 H    0.995 --    99 C    0.967
   118   1 H    0.995 --   100 C    0.951
   119   1 H    0.996 --   102 C    0.950
   120   1 H    0.991 --   104 C    0.966
   121   1 H    0.993 --   104 C    0.970
   122   1 H    0.995 --   105 C    0.953
   123   1 H    0.996 --   107 C    0.955
   124   1 H    0.938 --   111 N    0.918
   125   1 H    0.946 --   111 N    0.928
   126   1 H    0.997 --   113 C    0.957
   127  15 P    5.456 --   129 O    1.807   128 O    1.402   130 O    1.097
                           103 O    1.088
   128   8 O    2.319 --   127 P    1.402   223 H    0.757
   129   8 O    2.011 --   127 P    1.807
   130   8 O    2.246 --   127 P    1.097   131 C    0.950
   131   6 C    3.929 --   132 C    0.984   149 H    0.969   148 H    0.968
                           130 O    0.950
   132   6 C    3.945 --   131 C    0.984   134 C    0.967   133 O    0.966
                           150 H    0.952
   133   8 O    2.067 --   132 C    0.966   137 C    0.965
   134   6 C    3.932 --   136 C    0.989   132 C    0.967   151 H    0.962
                           135 O    0.943
   135   8 O    2.257 --   159 P    1.098   134 C    0.943
   136   6 C    3.989 --   137 C    0.990   134 C    0.989   152 H    0.968
                           153 H    0.968
   137   6 C    3.934 --   136 C    0.990   133 O    0.965   138 N    0.961
                           154 H    0.947
   138   7 N    3.590 --   139 C    1.215   147 C    1.145   137 C    0.961
                           140 N    0.114
   139   6 C    3.955 --   140 N    1.599   138 N    1.215   155 H    0.958
   140   7 N    3.054 --   139 C    1.599   141 C    1.171   138 N    0.114
   141   6 C    3.968 --   147 C    1.342   142 C    1.187   140 N    1.171
   142   6 C    3.973 --   143 N    1.335   144 N    1.310   141 C    1.187
   143   7 N    3.435 --   142 C    1.335   156 H    0.908   157 H    0.896
   144   7 N    3.026 --   145 C    1.416   142 C    1.310
   145   6 C    3.967 --   146 N    1.457   144 N    1.416   158 H    0.956
   146   7 N    3.005 --   145 C    1.457   147 C    1.263
   147   6 C    3.957 --   141 C    1.342   146 N    1.263   138 N    1.145
   148   1 H    0.995 --   131 C    0.968
   149   1 H    0.996 --   131 C    0.969
   150   1 H    0.992 --   132 C    0.952
   151   1 H    0.996 --   134 C    0.962
   152   1 H    0.994 --   136 C    0.968
   153   1 H    0.993 --   136 C    0.968
   154   1 H    0.995 --   137 C    0.947
   155   1 H    0.995 --   139 C    0.958
   156   1 H    0.944 --   143 N    0.908
   157   1 H    0.954 --   143 N    0.896
   158   1 H    0.996 --   145 C    0.956
   159  15 P    5.476 --   161 O    1.807   160 O    1.394   162 O    1.112
                           135 O    1.098
   160   8 O    2.310 --   159 P    1.394   228 H    0.756
   161   8 O    2.005 --   159 P    1.807
   162   8 O    2.253 --   159 P    1.112   163 C    0.942
   163   6 C    3.927 --   164 C    0.988   181 H    0.962   182 H    0.961
                           162 O    0.942
   164   6 C    3.947 --   163 C    0.988   165 O    0.969   166 C    0.965
                           183 H    0.950
   165   8 O    2.072 --   164 C    0.969   169 C    0.968
   166   6 C    3.930 --   168 C    0.989   164 C    0.965   184 H    0.963
                           167 O    0.942
   167   8 O    2.256 --   192 P    1.102   166 C    0.942
   168   6 C    3.987 --   166 C    0.989   169 C    0.977   185 H    0.974
                           186 H    0.965
   169   6 C    3.935 --   168 C    0.977   165 O    0.968   170 N    0.965
                           187 H    0.954
   170   7 N    3.572 --   171 C    1.174   180 C    1.160   169 C    0.965
                           172 N    0.112
   171   6 C    3.939 --   172 N    1.624   170 N    1.174   188 H    0.960
   172   7 N    3.022 --   171 C    1.624   173 C    1.190   170 N    0.112
   173   6 C    3.963 --   180 C    1.355   172 N    1.190   174 C    1.131
   174   6 C    3.950 --   175 O    1.569   176 N    1.134   173 C    1.131
   175   8 O    1.965 --   174 C    1.569   176 N    0.133
   176   7 N    3.517 --   177 C    1.176   174 C    1.134   189 H    0.854
                           175 O    0.133
   177   6 C    3.968 --   179 N    1.360   178 N    1.338   176 N    1.176
   178   7 N    3.396 --   177 C    1.338   191 H    0.923   190 H    0.864
                           179 N    0.105
   179   7 N    2.958 --   177 C    1.360   180 C    1.237   178 N    0.105
   180   6 C    3.957 --   173 C    1.355   179 N    1.237   170 N    1.160
   181   1 H    0.993 --   163 C    0.962
   182   1 H    0.992 --   163 C    0.961
   183   1 H    0.994 --   164 C    0.950
   184   1 H    0.996 --   166 C    0.963
   185   1 H    0.995 --   168 C    0.974
   186   1 H    0.993 --   168 C    0.965
   187   1 H    0.996 --   169 C    0.954
   188   1 H    0.995 --   171 C    0.960
   189   1 H    0.943 --   176 N    0.854
   190   1 H    0.935 --   178 N    0.864
   191   1 H    0.943 --   178 N    0.923
   192  15 P    5.445 --   194 O    1.782   193 O    1.380   195 O    1.110
                           167 O    1.102
   193   8 O    2.297 --   192 P    1.380   227 H    0.754
   194   8 O    1.990 --   192 P    1.782
   195   8 O    2.247 --   192 P    1.110   196 C    0.935
   196   6 C    3.923 --   197 C    0.987   211 H    0.965   212 H    0.963
                           195 O    0.935
   197   6 C    3.943 --   196 C    0.987   198 O    0.965   199 C    0.962
                           213 H    0.951
   198   8 O    2.074 --   202 C    0.977   197 C    0.965
   199   6 C    3.963 --   200 O    0.996   201 C    0.995   214 H    0.963
                           197 C    0.962
   200   8 O    1.930 --   199 C    0.996   215 H    0.864
   201   6 C    3.986 --   199 C    0.995   202 C    0.978   216 H    0.971
                           217 H    0.970
   202   6 C    3.925 --   201 C    0.978   198 O    0.977   218 H    0.955
                           203 N    0.946
   203   7 N    3.577 --   210 C    1.210   204 C    1.082   202 C    0.946
                           205 O    0.113
   204   6 C    3.953 --   205 O    1.541   206 N    1.239   203 N    1.082
   205   8 O    1.941 --   204 C    1.541   206 N    0.120   203 N    0.113
   206   7 N    3.054 --   207 C    1.351   204 C    1.239   205 O    0.120
                           208 N    0.113
   207   6 C    3.967 --   208 N    1.374   206 N    1.351   209 C    1.151
   208   7 N    3.451 --   207 C    1.374   220 H    0.928   219 H    0.867
                           206 N    0.113
   209   6 C    3.978 --   210 C    1.651   207 C    1.151   221 H    0.961
   210   6 C    3.962 --   209 C    1.651   203 N    1.210   222 H    0.953
   211   1 H    0.994 --   196 C    0.965
   212   1 H    0.994 --   196 C    0.963
   213   1 H    0.993 --   197 C    0.951
   214   1 H    0.997 --   199 C    0.963
   215   1 H    0.878 --   200 O    0.864
   216   1 H    0.995 --   201 C    0.971
   217   1 H    0.991 --   201 C    0.970
   218   1 H    0.993 --   202 C    0.955
   219   1 H    0.937 --   208 N    0.867
   220   1 H    0.948 --   208 N    0.928
   221   1 H    0.993 --   209 C    0.961
   222   1 H    0.991 --   210 C    0.953
   223   1 H    0.805 --   128 O    0.757
   224   1 H    0.793 --    97 O    0.754
   225   1 H    0.790 --    64 O    0.753
   226   1 H    0.787 --    33 O    0.748
   227   1 H    0.795 --   193 O    0.754
   228   1 H    0.797 --   160 O    0.756
 ---------------------------------------------------------------------------

Topologies differ in total number of bonds
Writing topology from bond orders to xtbtopo.mol

molecular dipole:
                 x           y           z       tot (Debye)
 q only:        9.394       0.410      -5.478
   full:        9.561      -0.048      -7.031      30.166
molecular quadrupole (traceless):
                xx          xy          yy          xz          yz          zz
 q only:      -98.524     -41.643     104.170     -26.243      98.756      -5.646
  q+dip:     -110.480     -36.280     118.020     -22.434     110.946      -7.540
   full:     -111.929     -44.160     122.021     -14.377     103.369     -10.092


           -------------------------------------------------
          | TOTAL ENERGY             -450.796295622977 Eh   |
          | GRADIENT NORM               0.379055131361 Eh/α |
          | HOMO-LUMO GAP               2.654368840309 eV   |
           -------------------------------------------------

------------------------------------------------------------------------
 * finished run on 2023/03/09 at 13:52:05.626     
------------------------------------------------------------------------
 total:
 * wall-time:     0 d,  0 h,  0 min,  0.859 sec
 *  cpu-time:     0 d,  0 h,  0 min,  8.339 sec
 * ratio c/w:     9.712 speedup
 SCF:
 * wall-time:     0 d,  0 h,  0 min,  0.708 sec
 *  cpu-time:     0 d,  0 h,  0 min,  7.081 sec
 * ratio c/w:     9.996 speedup

