      -----------------------------------------------------------      
     |                   =====================                   |     
     |                           x T B                           |     
     |                   =====================                   |     
     |                         S. Grimme                         |     
     |          Mulliken Center for Theoretical Chemistry        |     
     |                    University of Bonn                     |     
      -----------------------------------------------------------      

   * xtb version 6.5.1 (579679a) compiled by 'ehlert@majestix' on 2022-07-11

   xtb is free software: you can redistribute it and/or modify it under
   the terms of the GNU Lesser General Public License as published by
   the Free Software Foundation, either version 3 of the License, or
   (at your option) any later version.
   
   xtb is distributed in the hope that it will be useful,
   but WITHOUT ANY WARRANTY; without even the implied warranty of
   MERCHANTABILITY or FITNESS FOR A PARTICULAR PURPOSE.  See the
   GNU Lesser General Public License for more details.
   
   Cite this work as:
   * C. Bannwarth, E. Caldeweyher, S. Ehlert, A. Hansen, P. Pracht,
     J. Seibert, S. Spicher, S. Grimme, WIREs Comput. Mol. Sci., 2020, 11,
     e01493. DOI: 10.1002/wcms.1493
   
   for GFN2-xTB:
   * C. Bannwarth, S. Ehlert and S. Grimme., J. Chem. Theory Comput., 2019,
     15, 1652-1671. DOI: 10.1021/acs.jctc.8b01176
   for GFN1-xTB:
   * S. Grimme, C. Bannwarth, P. Shushkov, J. Chem. Theory Comput., 2017,
     13, 1989-2009. DOI: 10.1021/acs.jctc.7b00118
   for GFN0-xTB:
   * P. Pracht, E. Caldeweyher, S. Ehlert, S. Grimme, ChemRxiv, 2019, preprint.
     DOI: 10.26434/chemrxiv.8326202.v1
   for GFN-FF:
   * S. Spicher and S. Grimme, Angew. Chem. Int. Ed., 2020, 59, 15665-15673.
     DOI: 10.1002/anie.202004239
   
   for ALPB and GBSA implicit solvation:
   * S. Ehlert, M. Stahn, S. Spicher, S. Grimme, J. Chem. Theory Comput.,
     2021, 17, 4250-4261. DOI: 10.1021/acs.jctc.1c00471
   
   for DFT-D4:
   * E. Caldeweyher, C. Bannwarth and S. Grimme, J. Chem. Phys., 2017,
     147, 034112. DOI: 10.1063/1.4993215
   * E. Caldeweyher, S. Ehlert, A. Hansen, H. Neugebauer, S. Spicher,
     C. Bannwarth and S. Grimme, J. Chem. Phys., 2019, 150, 154122.
     DOI: 10.1063/1.5090222
   * E. Caldeweyher, J.-M. Mewes, S. Ehlert and S. Grimme, Phys. Chem. Chem. Phys.
     2020, 22, 8499-8512. DOI: 10.1039/D0CP00502A
   
   for sTDA-xTB:
   * S. Grimme and C. Bannwarth, J. Chem. Phys., 2016, 145, 054103.
     DOI: 10.1063/1.4959605
   
   in the mass-spec context:
   * V. Asgeirsson, C. Bauer and S. Grimme, Chem. Sci., 2017, 8, 4879.
     DOI: 10.1039/c7sc00601b
   * J. Koopman and S. Grimme, ACS Omega 2019, 4, 12, 15120-15133.
     DOI: 10.1021/acsomega.9b02011
   
   for metadynamics refer to:
   * S. Grimme, J. Chem. Theory Comput., 2019, 155, 2847-2862
     DOI: 10.1021/acs.jctc.9b00143
   
   for SPH calculations refer to:
   * S. Spicher and S. Grimme, J. Chem. Theory Comput., 2021, 17, 1701-1714
     DOI: 10.1021/acs.jctc.0c01306
   
   with help from (in alphabetical order)
   P. Atkinson, C. Bannwarth, F. Bohle, G. Brandenburg, E. Caldeweyher
   M. Checinski, S. Dohm, S. Ehlert, S. Ehrlich, I. Gerasimov, C. Hölzer
   A. Katbashev, J. Koopman, C. Lavigne, S. Lehtola, F. März, M. Müller,
   F. Musil, H. Neugebauer, J. Pisarek, C. Plett, P. Pracht, F. Pultar,
   J. Seibert, P. Shushkov, S. Spicher, M. Stahn, M. Steiner, T. Strunk,
   J. Stückrath, T. Rose, and J. Unsleber
   
 * started run on 2023/04/11 at 13:03:18.270     

           -------------------------------------------------
          |                Calculation Setup                |
           -------------------------------------------------

          program call               : /N/u/schandy/BigRed3/bin/xtb-6.5.1/bin/xtb 2M1V_min.xyz --alpb water
          hostname                   : nid00446
          coordinate file            : 2M1V_min.xyz
          omp threads                :                    10

   ID    Z sym.   atoms
    1    8 O      1, 4, 6, 8, 15, 34-36, 39, 41, 43, 50, 68-70, 73, 75, 77,
                  101-103, 106, 108, 110, 117, 135-137, 140, 142, 144, 148,
                  151, 165-167, 170, 172, 174, 198-200, 203, 205, 207, 211,
                  214, 228-230, 233, 235, 237, 244, 262-264, 267, 269, 271,
                  275, 278, 292-294, 297, 299, 301, 325-327, 330, 332, 334,
                  338, 341, 355-357, 360, 362, 364, 368, 371, 385-387, 390,
                  392, 394, 401, 419-421, 424, 426, 428, 435, 453-455, 458,
                  460, 462, 466, 484-486, 489, 491, 493, 517-519, 522, 524,
                  526, 530, 548-550, 553, 555, 557, 561, 564, 578-580, 583,
                  585, 587, 594, 612-614, 617, 619, 621, 645-647, 650, 652,
                  654, 661, 679-681, 684, 686, 688, 692, 710-712, 715, 717,
                  719, 743-745, 748, 750, 752, 756, 759, 773-775, 778, 780,
                  782, 806-808, 811, 813, 815, 819, 837-839, 842, 844, 846,
                  850, 853, 867-869, 872, 874, 876, 880, 898-900, 903, 905,
                  907, 911, 928, 931, 933, 938, 957-959, 962, 964, 989-991,
                  994, 996, 1004, 1022-1024, 1027, 1029, 1034, 1037,
                  1054-1056, 1059, 1061, 1069, 1087-1089, 1092, 1094, 1099,
                  1102, 1119-1121, 1124, 1126, 1131
    2    6 C      2, 3, 5, 7, 9, 11, 13, 14, 17, 20, 37, 38, 40, 42, 44, 46,
                  48, 49, 52, 55, 71, 72, 74, 76, 78, 80, 82, 83, 86, 88,
                  104, 105, 107, 109, 111, 113, 115, 116, 119, 122, 138, 139,
                  141, 143, 145, 147, 150, 152, 153, 168, 169, 171, 173, 175,
                  177, 179, 180, 183, 185, 201, 202, 204, 206, 208, 210, 213,
                  215, 216, 231, 232, 234, 236, 238, 240, 242, 243, 246, 249,
                  265, 266, 268, 270, 272, 274, 277, 279, 280, 295, 296, 298,
                  300, 302, 304, 306, 307, 310, 312, 328, 329, 331, 333, 335,
                  337, 340, 342, 343, 358, 359, 361, 363, 365, 367, 370, 372,
                  373, 388, 389, 391, 393, 395, 397, 399, 400, 403, 406, 422,
                  423, 425, 427, 429, 431, 433, 434, 437, 440, 456, 457, 459,
                  461, 463, 465, 468, 470, 471, 487, 488, 490, 492, 494, 496,
                  498, 499, 502, 504, 520, 521, 523, 525, 527, 529, 532, 534,
                  535, 551, 552, 554, 556, 558, 560, 563, 565, 566, 581, 582,
                  584, 586, 588, 590, 592, 593, 596, 599, 615, 616, 618, 620,
                  622, 624, 626, 627, 630, 632, 648, 649, 651, 653, 655, 657,
                  659, 660, 663, 666, 682, 683, 685, 687, 689, 691, 694, 696,
                  697, 713, 714, 716, 718, 720, 722, 724, 725, 728, 730, 746,
                  747, 749, 751, 753, 755, 758, 760, 761, 776, 777, 779, 781,
                  783, 785, 787, 788, 791, 793, 809, 810, 812, 814, 816, 818,
                  821, 823, 824, 840, 841, 843, 845, 847, 849, 852, 854, 855,
                  870, 871, 873, 875, 877, 879, 882, 884, 885, 901, 902, 904,
                  906, 908, 910, 913, 915, 916, 929, 930, 932, 934, 935, 937,
                  940, 942, 943, 960, 961, 963, 965, 966, 968, 970, 971, 974,
                  976, 992, 993, 995, 997, 998, 1000, 1002, 1003, 1006, 1009,
                  1025, 1026, 1028, 1030, 1031, 1033, 1036, 1038-1040, 1057,
                  1058, 1060, 1062, 1063, 1065, 1067, 1068, 1071, 1074, 1090,
                  1091, 1093, 1095, 1096, 1098, 1101, 1103-1105, 1122, 1123,
                  1125, 1127, 1128, 1130, 1133, 1135, 1136
    3    7 N      10, 12, 16, 18, 19, 45, 47, 51, 53, 54, 79, 81, 84, 85, 87,
                  112, 114, 118, 120, 121, 146, 149, 176, 178, 181, 182, 184,
                  209, 212, 239, 241, 245, 247, 248, 273, 276, 303, 305, 308,
                  309, 311, 336, 339, 366, 369, 396, 398, 402, 404, 405, 430,
                  432, 436, 438, 439, 464, 467, 469, 495, 497, 500, 501, 503,
                  528, 531, 533, 559, 562, 589, 591, 595, 597, 598, 623, 625,
                  628, 629, 631, 656, 658, 662, 664, 665, 690, 693, 695, 721,
                  723, 726, 727, 729, 754, 757, 784, 786, 789, 790, 792, 817,
                  820, 822, 848, 851, 878, 881, 883, 909, 912, 914, 936, 939,
                  941, 967, 969, 972, 973, 975, 999, 1001, 1005, 1007, 1008,
                  1032, 1035, 1064, 1066, 1070, 1072, 1073, 1097, 1100, 1129,
                  1132, 1134
    4    1 H      21-32, 56-66, 89-99, 123-133, 154-163, 186-196, 217-226,
                  250-260, 281-290, 313-323, 344-353, 374-383, 407-417,
                  441-451, 472-482, 505-515, 536-546, 567-576, 600-610,
                  633-643, 667-677, 698-708, 731-741, 762-771, 794-804,
                  825-835, 856-865, 886-896, 917-927, 944-955, 977-987,
                  1010-1020, 1041-1052, 1075-1085, 1106-1117, 1137-1147
    5   15 P      33, 67, 100, 134, 164, 197, 227, 261, 291, 324, 354, 384,
                  418, 452, 483, 516, 547, 577, 611, 644, 678, 709, 742, 772,
                  805, 836, 866, 897, 956, 988, 1021, 1053, 1086, 1118

molecular fragmentation (1/2 indicates fragments):
111111111111111111111111111111111111111111111111111111111111111111111111
111111111111111111111111111111111111111111111111111111111111111111111111
111111111111111111111111111111111111111111111111111111111111111111111111
111111111111111111111111111111111111111111111111111111111111111111111111
111111111111111111111111111111111111111111111111111111111111111111111111
111111111111111111111111111111111111111111111111111111111111111111111111
111111111111111111111111111111111111111111111111111111111111111111111111
111111111111111111111111111111111111111111111111111111111111111111111111
111111111111111111111111111111111111111111111111111111111111111111111111
111111111111111111111111111111111111111111111111111111111111111111111111
111111111111111111111111111111111111111111111111111111111111111111111111
111111111111111111111111111111111111111111111111111111111111111111111111
111111111111111111111111111111111111111111111111111111111111111222222222
222222222222222222222222222222222222222222222222222222222222222222222222
222222222222222222222222222222222222222222222222222222222222222222222222
2222222222222222222222222222222222222222222222222222222222222222222
# atoms in fragment 1/2:   927   220
 fragment masses (1/2) :     9255.32     2089.35
CMA distance (Bohr)    :  37.659
constraining FC (au)   :  0.0500

           -------------------------------------------------
          |                 G F N 2 - x T B                 |
           -------------------------------------------------

        Reference                      10.1021/acs.jctc.8b01176
      * Hamiltonian:
        H0-scaling (s, p, d)           1.850000    2.230000    2.230000
        zeta-weighting                 0.500000
      * Dispersion:
        s8                             2.700000
        a1                             0.520000
        a2                             5.000000
        s9                             5.000000
      * Repulsion:
        kExp                           1.500000    1.000000
        rExp                           1.000000
      * Coulomb:
        alpha                          2.000000
        third order                    shell-resolved
        anisotropic                    true
        a3                             3.000000
        a5                             4.000000
        cn-shift                       1.200000
        cn-exp                         4.000000
        max-rad                        5.000000

      * Solvation model:               ALPB
        Solvent                        water
        Parameter file                 internal GFN2-xTB/ALPB
        Dielectric constant                8.0200E+01
        Reference state                gsolv [1 M gas/solution]
        Free energy shift                  1.0808E-03 Eh       6.7819E-01 kcal/mol
        Temperature                        2.9815E+02 K
        Density                            1.0000E+00 kg/L
        Solvent mass                       1.8000E+01 g/mol
        Interaction kernel             P16
        Born radius scaling (c1)           1.4744E+00
        Born radii integrator          GBOBC
        Born offset                        0.0000E+00 a0       0.0000E+00 AA
        H-bond correction              true
        Ion screening                  false
        Surface tension                    1.0000E-05 Eh       1.5569E+01 dyn/cm
        Grid points                               230 per atom

          ...................................................
          :                      SETUP                      :
          :.................................................:
          :  # basis functions                3616          :
          :  # atomic orbitals                3582          :
          :  # shells                         1936          :
          :  # electrons                      4066          :
          :  max. iterations                   250          :
          :  Hamiltonian                  GFN2-xTB          :
          :  restarted?                      false          :
          :  GBSA solvation                   true          :
          :  PC potential                    false          :
          :  electronic temp.          300.0000000     K    :
          :  accuracy                    1.0000000          :
          :  -> integral cutoff          0.2500000E+02      :
          :  -> integral neglect         0.1000000E-07      :
          :  -> SCF convergence          0.1000000E-05 Eh   :
          :  -> wf. convergence          0.1000000E-03 e    :
          :  Broyden damping             0.4000000          :
          ...................................................

 iter      E             dE          RMSdq      gap      omega  full diag
   1  -2417.6576257 -0.241766E+04  0.667E+00    0.03       0.0  T
   2  -2421.5587596 -0.390113E+01  0.416E+00    0.01       1.0  T
   3  -2421.3237959  0.234964E+00  0.294E+00    0.01       1.0  T
   4  -2422.8134177 -0.148962E+01  0.253E+00    0.03       1.0  T
   5  -2425.6760271 -0.286261E+01  0.195E+00    0.02       1.0  T
   6  -2425.9904268 -0.314400E+00  0.174E+00    0.01       1.0  T
   7  -2427.6394285 -0.164900E+01  0.140E+00    0.01       1.0  T
   8  -2427.6773795 -0.379510E-01  0.146E+00    0.01       1.0  T
   9  -2428.5333734 -0.855994E+00  0.109E+00    0.01       1.0  T
  10  -2428.4314546  0.101919E+00  0.108E+00    0.01       1.0  T
  11  -2428.9960295 -0.564575E+00  0.967E-01    0.00       1.0  T
  12  -2429.1875124 -0.191483E+00  0.963E-01    0.00       1.0  T
  13  -2429.4590541 -0.271542E+00  0.794E-01    0.00       1.0  T
  14  -2429.2867147  0.172339E+00  0.906E-01    0.01       1.0  T
  15  -2429.5442957 -0.257581E+00  0.812E-01    0.00       1.0  T
  16  -2429.5250112  0.192846E-01  0.748E-01    0.00       1.0  T
  17  -2429.6852556 -0.160244E+00  0.713E-01    0.00       1.0  T
  18  -2429.9701432 -0.284888E+00  0.591E-01    0.00       1.0  T
  19  -2430.1525839 -0.182441E+00  0.483E-01    0.00       1.0  T
  20  -2429.8889103  0.263674E+00  0.639E-01    0.00       1.0  T
  21  -2430.0228138 -0.133903E+00  0.601E-01    0.00       1.0  T
  22  -2429.8632236  0.159590E+00  0.653E-01    0.00       1.0  T
  23  -2430.2571669 -0.393943E+00  0.439E-01    0.01       1.0  T
  24  -2430.1131203  0.144047E+00  0.526E-01    0.00       1.0  T
  25  -2430.0521093  0.610110E-01  0.546E-01    0.00       1.0  T
  26  -2430.1084638 -0.563545E-01  0.526E-01    0.00       1.0  T
  27  -2430.1778633 -0.693995E-01  0.496E-01    0.00       1.0  T
  28  -2430.0172719  0.160591E+00  0.543E-01    0.01       1.0  T
  29  -2430.1340954 -0.116823E+00  0.495E-01    0.00       1.0  T
  30  -2430.1320014  0.209401E-02  0.520E-01    0.01       1.0  T
  31  -2430.1344177 -0.241634E-02  0.504E-01    0.01       1.0  T
  32  -2430.2955178 -0.161100E+00  0.454E-01    0.00       1.0  T
  33  -2430.2102940  0.852238E-01  0.479E-01    0.00       1.0  T
  34  -2430.2287167 -0.184227E-01  0.483E-01    0.01       1.0  T
  35  -2430.1948445  0.338722E-01  0.498E-01    0.01       1.0  T
  36  -2430.2661975 -0.713530E-01  0.460E-01    0.01       1.0  T
  37  -2430.3933272 -0.127130E+00  0.407E-01    0.01       1.0  T
  38  -2430.2378821  0.155445E+00  0.458E-01    0.00       1.0  T
  39  -2430.3138684 -0.759863E-01  0.459E-01    0.00       1.0  T
  40  -2430.3464655 -0.325971E-01  0.415E-01    0.00       1.0  T
  41  -2430.2853072  0.611583E-01  0.454E-01    0.01       1.0  T
  42  -2430.4050492 -0.119742E+00  0.405E-01    0.00       1.0  T
  43  -2430.4816637 -0.766146E-01  0.379E-01    0.01       1.0  T
  44  -2430.5152765 -0.336127E-01  0.340E-01    0.00       1.0  T
  45  -2430.6015001 -0.862236E-01  0.262E-01    0.01       1.0  T
  46  -2430.6254168 -0.239167E-01  0.246E-01    0.01       1.0  T
  47  -2430.6268972 -0.148039E-02  0.256E-01    0.01       1.0  T
  48  -2430.6577560 -0.308588E-01  0.211E-01    0.00       1.0  T
  49  -2430.6837803 -0.260243E-01  0.178E-01    0.00       1.0  T
  50  -2430.6671455  0.166348E-01  0.201E-01    0.00       1.0  T
  51  -2430.6970551 -0.299096E-01  0.165E-01    0.01       1.0  T
  52  -2430.6980722 -0.101709E-02  0.154E-01    0.00       1.0  T
  53  -2430.7013472 -0.327493E-02  0.159E-01    0.00       1.0  T
  54  -2430.7233823 -0.220352E-01  0.105E-01    0.00       1.0  T
  55  -2430.6955501  0.278323E-01  0.156E-01    0.01       1.0  T
  56  -2430.7232312 -0.276812E-01  0.107E-01    0.00       1.0  T
  57  -2430.7231663  0.649185E-04  0.100E-01    0.00       1.0  T
  58  -2430.7295223 -0.635597E-02  0.849E-02    0.00       1.0  T
  59  -2430.7316662 -0.214392E-02  0.820E-02    0.01       1.0  T
  60  -2430.7349410 -0.327485E-02  0.697E-02    0.00       1.0  T
  61  -2430.7357271 -0.786003E-03  0.643E-02    0.00       1.0  T
  62  -2430.7335010  0.222606E-02  0.695E-02    0.01       1.0  T
  63  -2430.7340451 -0.544163E-03  0.639E-02    0.00       1.0  T
  64  -2430.7368895 -0.284435E-02  0.531E-02    0.00       1.0  T
  65  -2430.7391149 -0.222544E-02  0.409E-02    0.00       1.0  T
  66  -2430.7396411 -0.526134E-03  0.408E-02    0.00       1.0  T
  67  -2430.7408899 -0.124881E-02  0.314E-02    0.00       1.0  T
  68  -2430.7408967 -0.680151E-05  0.298E-02    0.00       1.0  T
  69  -2430.7415463 -0.649611E-03  0.228E-02    0.00       1.0  T
  70  -2430.7413710  0.175241E-03  0.234E-02    0.00       1.0  T
  71  -2430.7415805 -0.209425E-03  0.201E-02    0.00       1.0  T
  72  -2430.7418013 -0.220874E-03  0.180E-02    0.00       1.0  T
  73  -2430.7418992 -0.978194E-04  0.160E-02    0.00       1.0  T
  74  -2430.7420200 -0.120799E-03  0.139E-02    0.00       1.0  T
  75  -2430.7421261 -0.106151E-03  0.113E-02    0.00       1.0  T
  76  -2430.7421275 -0.134831E-05  0.109E-02    0.00       1.0  T
  77  -2430.7421687 -0.412057E-04  0.100E-02    0.00       1.0  T
  78  -2430.7422196 -0.509755E-04  0.875E-03    0.00       1.0  T
  79  -2430.7422516 -0.319451E-04  0.735E-03    0.00       1.0  T
  80  -2430.7422694 -0.178054E-04  0.658E-03    0.00       1.0  T
  81  -2430.7422840 -0.145855E-04  0.568E-03    0.00       1.0  T
  82  -2430.7422856 -0.165246E-05  0.554E-03    0.00       1.0  T
  83  -2430.7422936 -0.791984E-05  0.489E-03    0.00       1.0  T
  84  -2430.7422986 -0.500304E-05  0.434E-03    0.00       1.0  T
  85  -2430.7423029 -0.429749E-05  0.384E-03    0.00       1.0  T
  86  -2430.7423067 -0.382607E-05  0.332E-03    0.00       1.0  T
  87  -2430.7423081 -0.136855E-05  0.303E-03    0.00       1.0  T
  88  -2430.7423108 -0.272778E-05  0.265E-03    0.00       1.1  T
  89  -2430.7423112 -0.454359E-06  0.255E-03    0.00       1.2  T
  90  -2430.7423132 -0.195483E-05  0.219E-03    0.00       1.4  T
  91  -2430.7423131  0.912323E-07  0.210E-03    0.00       1.4  T
  92  -2430.7423143 -0.121421E-05  0.189E-03    0.00       1.6  T
  93  -2430.7423149 -0.574626E-06  0.168E-03    0.00       1.8  T
  94  -2430.7423154 -0.502775E-06  0.145E-03    0.00       2.0  T
  95  -2430.7423158 -0.369115E-06  0.130E-03    0.00       2.3  T
  96  -2430.7423160 -0.210128E-06  0.116E-03    0.00       2.6  T
  97  -2430.7423165 -0.489971E-06  0.928E-04    0.00       3.2  T
  98  -2430.7423167 -0.193860E-06  0.779E-04    0.00       3.8  T

   *** convergence criteria satisfied after 98 iterations ***

         #    Occupation            Energy/Eh            Energy/eV
      -------------------------------------------------------------
         1        2.0000           -0.7877180             -21.4349
       ...           ...                  ...                  ...
      2027        1.5929           -0.4004033             -10.8955
      2028        1.4933           -0.4001340             -10.8882
      2029        1.4255           -0.3999705             -10.8838
      2030        1.4017           -0.3999161             -10.8823
      2031        1.3583           -0.3998196             -10.8796
      2032        1.3483           -0.3997980             -10.8791
      2033        1.2178           -0.3995279             -10.8717 (HOMO)
      2034        1.1797           -0.3994525             -10.8697 (LUMO)
      2035        1.0926           -0.3992837             -10.8651
      2036        1.0690           -0.3992386             -10.8638
      2037        1.0538           -0.3992096             -10.8630
      2038        0.6895           -0.3984972             -10.8437
       ...           ...                  ...                  ...
      3582                          1.3685961              37.2414
      -------------------------------------------------------------
                  HL-Gap            0.0000754 Eh            0.0021 eV
             Fermi-level           -0.3991073 Eh          -10.8603 eV

 SCC (total)                   0 d,  0 h,  3 min, 33.718 sec
 SCC setup                      ...        0 min,  0.174 sec (  0.082%)
 Dispersion                     ...        0 min,  0.723 sec (  0.338%)
 classical contributions        ...        0 min,  0.006 sec (  0.003%)
 integral evaluation            ...        0 min,  1.492 sec (  0.698%)
 iterations                     ...        3 min, 25.816 sec ( 96.303%)
 molecular gradient             ...        0 min,  5.140 sec (  2.405%)
 printout                       ...        0 min,  0.365 sec (  0.171%)

         :::::::::::::::::::::::::::::::::::::::::::::::::::::
         ::                     SUMMARY                     ::
         :::::::::::::::::::::::::::::::::::::::::::::::::::::
         :: total energy           -2408.387064543024 Eh    ::
         :: total w/o Gsasa/hb     -2408.226079758838 Eh    ::
         :: gradient norm              0.902036951959 Eh/a0 ::
         :: HOMO-LUMO gap              0.002051266047 eV    ::
         ::.................................................::
         :: SCC energy             -2430.742316652355 Eh    ::
         :: -> isotropic ES           33.998093070801 Eh    ::
         :: -> anisotropic ES         -7.876595106146 Eh    ::
         :: -> anisotropic XC          0.405065320282 Eh    ::
         :: -> dispersion             -2.181603276155 Eh    ::
         :: -> Gsolv                 -23.835427386507 Eh    ::
         ::    -> Gelec              -23.674442602321 Eh    ::
         ::    -> Gsasa                0.152978381057 Eh    ::
         ::    -> Ghb                 -0.315043924940 Eh    ::
         ::    -> Gshift               0.001080759698 Eh    ::
         :: repulsion energy          22.138473333579 Eh    ::
         :: add. restraining           0.000000000000 Eh    ::
         :: total charge               0.000000001035 e     ::
         :::::::::::::::::::::::::::::::::::::::::::::::::::::

           -------------------------------------------------
          |                Property Printout                |
           -------------------------------------------------

    * Orbital Energies and Occupations

         #    Occupation            Energy/Eh            Energy/eV
      -------------------------------------------------------------
         1        2.0000           -0.7877180             -21.4349
       ...           ...                  ...                  ...
      2021        1.7146           -0.4008109             -10.9066
      2022        1.7093           -0.4007904             -10.9061
      2023        1.6853           -0.4007015             -10.9036
      2024        1.6640           -0.4006272             -10.9016
      2025        1.6574           -0.4006051             -10.9010
      2026        1.6448           -0.4005633             -10.8999
      2027        1.5929           -0.4004033             -10.8955
      2028        1.4933           -0.4001340             -10.8882
      2029        1.4255           -0.3999705             -10.8838
      2030        1.4017           -0.3999161             -10.8823
      2031        1.3583           -0.3998196             -10.8796
      2032        1.3483           -0.3997980             -10.8791
      2033        1.2178           -0.3995279             -10.8717 (HOMO)
      2034        1.1797           -0.3994525             -10.8697 (LUMO)
      2035        1.0926           -0.3992837             -10.8651
      2036        1.0690           -0.3992386             -10.8638
      2037        1.0538           -0.3992096             -10.8630
      2038        0.6895           -0.3984972             -10.8437
      2039        0.5997           -0.3983015             -10.8383
      2040        0.5588           -0.3982070             -10.8358
      2041        0.4723           -0.3979920             -10.8299
      2042        0.3382           -0.3975949             -10.8191
      2043        0.3154           -0.3975154             -10.8169
      2044        0.2687           -0.3973374             -10.8121
       ...           ...                  ...                  ...
      3582                          1.3685961              37.2414
      -------------------------------------------------------------
                  HL-Gap            0.0000754 Eh            0.0021 eV
             Fermi-level           -0.3991073 Eh          -10.8603 eV

 * generalized Born model for continuum solvation

     #   Z     Born rad/Å   SASA/Å²    H-bond
     1   8 O        1.995    16.767    -0.002
     2   6 C        2.319     0.668    -0.000
     3   6 C        2.516     0.080    -0.000
     4   8 O        2.367     5.939    -0.001
     5   6 C        2.626     0.067    -0.000
     6   8 O        2.342     4.967    -0.001
     7   6 C        2.660     0.000    -0.000
     8   8 O        2.226     3.054    -0.000
     9   6 C        2.688     0.493    -0.000
    10   7 N        2.745     0.939    -0.000
    11   6 C        2.589    10.278    -0.001
    12   7 N        2.386    19.773    -0.001
    13   6 C        2.889     5.758    -0.001
    14   6 C        2.642     5.375    -0.001
    15   8 O        2.166    12.739    -0.001
    16   7 N        2.604     2.006    -0.000
    17   6 C        2.872     4.255    -0.000
    18   7 N        2.374     3.975    -0.000
    19   7 N        2.684     4.222    -0.000
    20   6 C        3.084     3.465    -0.000
    21   1 H        1.830    19.271    -0.032
    22   1 H        1.846    14.439    -0.024
    23   1 H        1.934    15.671    -0.026
    24   1 H        2.002     8.167    -0.014
    25   1 H        2.123     3.662    -0.006
    26   1 H        1.938     5.083    -0.009
    27   1 H        1.985    13.967    -0.023
    28   1 H        1.916    16.321    -0.027
    29   1 H        2.306     0.276    -0.000
    30   1 H        2.023     2.465    -0.004
    31   1 H        1.995    13.507    -0.023
    32   1 H        1.702    25.949    -0.044
    33  15 P        2.793     6.493    -0.001
    34   8 O        2.077    26.646    -0.003
    35   8 O        2.110    22.673    -0.003
    36   8 O        2.377     0.026    -0.000
    37   6 C        2.458     0.480    -0.000
    38   6 C        2.573     0.178    -0.000
    39   8 O        2.403     7.663    -0.001
    40   6 C        2.705     0.000     0.000
    41   8 O        2.357     4.975    -0.001
    42   6 C        2.614     0.253    -0.000
    43   8 O        2.103    12.340    -0.001
    44   6 C        2.710     0.425    -0.000
    45   7 N        2.891     0.095    -0.000
    46   6 C        2.812     0.255    -0.000
    47   7 N        2.705     3.539    -0.000
    48   6 C        3.329     0.011    -0.000
    49   6 C        2.952     0.002    -0.000
    50   8 O        2.377     2.491    -0.000
    51   7 N        2.731     0.000     0.000
    52   6 C        2.832     0.919    -0.000
    53   7 N        2.269     2.312    -0.000
    54   7 N        2.617     4.849    -0.000
    55   6 C        3.275     0.020    -0.000
    56   1 H        1.886    13.150    -0.022
    57   1 H        1.897    12.819    -0.022
    58   1 H        1.939    12.703    -0.021
    59   1 H        2.152     0.587    -0.001
    60   1 H        2.089     0.216    -0.000
    61   1 H        1.799    13.990    -0.023
    62   1 H        1.970    15.917    -0.027
    63   1 H        2.170     0.368    -0.001
    64   1 H        2.293     0.000     0.000
    65   1 H        1.941     4.789    -0.008
    66   1 H        1.893    18.306    -0.031
    67  15 P        2.791     9.887    -0.002
    68   8 O        2.075    27.856    -0.003
    69   8 O        2.109    20.065    -0.002
    70   8 O        2.364     0.884    -0.000
    71   6 C        2.469     0.446    -0.000
    72   6 C        2.589     0.132    -0.000
    73   8 O        2.479     3.175    -0.000
    74   6 C        2.703     0.000     0.000
    75   8 O        2.362     5.104    -0.001
    76   6 C        2.652     0.000     0.000
    77   8 O        2.129     7.686    -0.001
    78   6 C        2.785     0.057    -0.000
    79   7 N        2.998     0.000    -0.000
    80   6 C        2.834     2.238    -0.000
    81   7 N        2.598     9.613    -0.001
    82   6 C        3.315     0.477    -0.000
    83   6 C        2.960     0.123    -0.000
    84   7 N        2.313     1.113    -0.000
    85   7 N        2.732     0.004    -0.000
    86   6 C        2.880     0.072    -0.000
    87   7 N        2.645     2.351    -0.000
    88   6 C        3.383     0.000    -0.000
    89   1 H        1.919     8.065    -0.014
    90   1 H        1.892    14.115    -0.024
    91   1 H        1.954    15.080    -0.025
    92   1 H        2.114     2.339    -0.004
    93   1 H        2.138     0.000     0.000
    94   1 H        1.777    16.259    -0.027
    95   1 H        2.043     2.872    -0.005
    96   1 H        2.096     0.103    -0.000
    97   1 H        2.020     0.319    -0.001
    98   1 H        1.932    17.966    -0.030
    99   1 H        2.100     3.195    -0.005
   100  15 P        2.791    10.048    -0.002
   101   8 O        2.074    28.642    -0.003
   102   8 O        2.104    24.876    -0.003
   103   8 O        2.363     0.978    -0.000
   104   6 C        2.481     0.334    -0.000
   105   6 C        2.599     0.013    -0.000
   106   8 O        2.512     1.151    -0.000
   107   6 C        2.705     0.000     0.000
   108   8 O        2.365     4.738    -0.001
   109   6 C        2.658     0.050    -0.000
   110   8 O        2.130     9.376    -0.001
   111   6 C        2.806     0.029    -0.000
   112   7 N        3.056     0.000     0.000
   113   6 C        2.876     1.852    -0.000
   114   7 N        2.612    11.323    -0.001
   115   6 C        3.238     0.052    -0.000
   116   6 C        2.838     0.032    -0.000
   117   8 O        2.257     7.573    -0.001
   118   7 N        2.790     0.000     0.000
   119   6 C        2.948     0.002    -0.000
   120   7 N        2.348     0.067    -0.000
   121   7 N        2.709     2.691    -0.000
   122   6 C        3.411     0.000     0.000
   123   1 H        1.928     6.826    -0.011
   124   1 H        1.903    13.190    -0.022
   125   1 H        1.962    11.179    -0.019
   126   1 H        2.109     1.299    -0.002
   127   1 H        2.143     0.000    -0.000
   128   1 H        1.811    13.641    -0.023
   129   1 H        2.043     8.562    -0.014
   130   1 H        2.094     1.166    -0.002
   131   1 H        2.368     0.000     0.000
   132   1 H        2.001     1.733    -0.003
   133   1 H        1.945     9.603    -0.016
   134  15 P        2.797     8.950    -0.002
   135   8 O        2.077    27.834    -0.003
   136   8 O        2.108    21.892    -0.002
   137   8 O        2.379     0.372    -0.000
   138   6 C        2.478     0.382    -0.000
   139   6 C        2.598     0.073    -0.000
   140   8 O        2.507     2.480    -0.000
   141   6 C        2.706     0.000     0.000
   142   8 O        2.361     5.328    -0.001
   143   6 C        2.631     0.093    -0.000
   144   8 O        2.116    12.134    -0.001
   145   6 C        2.809     0.008    -0.000
   146   7 N        2.903     0.000     0.000
   147   6 C        2.886     0.000     0.000
   148   8 O        2.271     5.337    -0.001
   149   7 N        2.715     0.000     0.000
   150   6 C        2.771     0.039    -0.000
   151   8 O        2.274     5.905    -0.001
   152   6 C        2.695     2.240    -0.000
   153   6 C        2.834     0.583    -0.000
   154   1 H        1.921     7.973    -0.013
   155   1 H        1.899    12.674    -0.021
   156   1 H        1.957    12.255    -0.021
   157   1 H        2.129     1.571    -0.003
   158   1 H        2.081     0.103    -0.000
   159   1 H        1.808    13.771    -0.023
   160   1 H        2.076     2.159    -0.004
   161   1 H        2.411     0.000     0.000
   162   1 H        2.000    12.714    -0.021
   163   1 H        2.167     0.028    -0.000
   164  15 P        2.786     9.746    -0.002
   165   8 O        2.073    28.377    -0.003
   166   8 O        2.100    24.464    -0.003
   167   8 O        2.361     0.538    -0.000
   168   6 C        2.476     0.435    -0.000
   169   6 C        2.583     0.172    -0.000
   170   8 O        2.446     4.273    -0.000
   171   6 C        2.688     0.008    -0.000
   172   8 O        2.367     4.241    -0.000
   173   6 C        2.655     0.001    -0.000
   174   8 O        2.154     4.397    -0.000
   175   6 C        2.759     0.051    -0.000
   176   7 N        2.923     0.001    -0.000
   177   6 C        2.821     3.029    -0.000
   178   7 N        2.676     7.072    -0.000
   179   6 C        3.329     0.792    -0.000
   180   6 C        3.034     0.210    -0.000
   181   7 N        2.353     1.998    -0.000
   182   7 N        2.793     0.000    -0.000
   183   6 C        2.857     0.120    -0.000
   184   7 N        2.614     4.322    -0.000
   185   6 C        3.322     0.000    -0.000
   186   1 H        1.937     5.879    -0.010
   187   1 H        1.898    14.232    -0.024
   188   1 H        1.952    13.128    -0.022
   189   1 H        2.082     2.663    -0.004
   190   1 H        2.140     0.000    -0.000
   191   1 H        1.811    12.560    -0.021
   192   1 H        2.022    10.644    -0.018
   193   1 H        2.079     1.359    -0.002
   194   1 H        1.990     5.051    -0.008
   195   1 H        1.956    12.731    -0.021
   196   1 H        2.101     3.749    -0.006
   197  15 P        2.794    10.204    -0.002
   198   8 O        2.074    28.539    -0.003
   199   8 O        2.112    20.859    -0.002
   200   8 O        2.360     0.508    -0.000
   201   6 C        2.466     0.345    -0.000
   202   6 C        2.579     0.147    -0.000
   203   8 O        2.438     4.483    -0.000
   204   6 C        2.691     0.001    -0.000
   205   8 O        2.357     5.227    -0.001
   206   6 C        2.618     0.000     0.000
   207   8 O        2.118     8.076    -0.001
   208   6 C        2.720     0.393    -0.000
   209   7 N        2.738     0.006    -0.000
   210   6 C        2.711     0.023    -0.000
   211   8 O        2.185     9.828    -0.001
   212   7 N        2.559     0.000    -0.000
   213   6 C        2.686     0.399    -0.000
   214   8 O        2.228     7.269    -0.001
   215   6 C        2.652     2.832    -0.000
   216   6 C        2.755     0.852    -0.000
   217   1 H        1.906     8.792    -0.015
   218   1 H        1.895    13.917    -0.023
   219   1 H        1.949    15.313    -0.026
   220   1 H        2.108     1.879    -0.003
   221   1 H        2.070     0.005    -0.000
   222   1 H        1.768    16.053    -0.027
   223   1 H        1.980    12.124    -0.020
   224   1 H        2.258     0.000    -0.000
   225   1 H        1.993    13.253    -0.022
   226   1 H        2.137     0.203    -0.000
   227  15 P        2.788     8.734    -0.002
   228   8 O        2.074    28.057    -0.003
   229   8 O        2.099    25.045    -0.003
   230   8 O        2.371     0.117    -0.000
   231   6 C        2.478     0.282    -0.000
   232   6 C        2.581     0.126    -0.000
   233   8 O        2.429     4.186    -0.000
   234   6 C        2.700     0.000    -0.000
   235   8 O        2.364     5.290    -0.001
   236   6 C        2.654     0.000     0.000
   237   8 O        2.137     6.904    -0.001
   238   6 C        2.739     0.274    -0.000
   239   7 N        2.893     0.047    -0.000
   240   6 C        2.753     1.029    -0.000
   241   7 N        2.538     7.092    -0.000
   242   6 C        3.129     0.001    -0.000
   243   6 C        2.805     0.001    -0.000
   244   8 O        2.233     8.502    -0.001
   245   7 N        2.730     0.000     0.000
   246   6 C        2.843     0.069    -0.000
   247   7 N        2.302     0.424    -0.000
   248   7 N        2.619     3.458    -0.000
   249   6 C        3.244     0.024    -0.000
   250   1 H        1.921     5.611    -0.009
   251   1 H        1.909    12.754    -0.021
   252   1 H        1.949    15.439    -0.026
   253   1 H        2.106     0.832    -0.001
   254   1 H        2.149     0.000    -0.000
   255   1 H        1.782    14.265    -0.024
   256   1 H        2.003    12.305    -0.021
   257   1 H        2.044     1.161    -0.002
   258   1 H        2.432     0.000     0.000
   259   1 H        2.068     0.353    -0.001
   260   1 H        1.904    18.012    -0.030
   261  15 P        2.797     9.219    -0.002
   262   8 O        2.077    27.806    -0.003
   263   8 O        2.104    21.852    -0.002
   264   8 O        2.398     0.071    -0.000
   265   6 C        2.487     0.114    -0.000
   266   6 C        2.587     0.129    -0.000
   267   8 O        2.443     4.266    -0.000
   268   6 C        2.690     0.001    -0.000
   269   8 O        2.352     4.528    -0.001
   270   6 C        2.610     0.024    -0.000
   271   8 O        2.122     8.834    -0.001
   272   6 C        2.736     0.035    -0.000
   273   7 N        2.752     0.046    -0.000
   274   6 C        2.730     0.629    -0.000
   275   8 O        2.256     0.687    -0.000
   276   7 N        2.500     1.423    -0.000
   277   6 C        2.632     4.406    -0.000
   278   8 O        2.151    21.412    -0.002
   279   6 C        2.650     4.748    -0.000
   280   6 C        2.769     1.730    -0.000
   281   1 H        1.903     7.825    -0.013
   282   1 H        1.924    11.275    -0.019
   283   1 H        1.947    12.932    -0.022
   284   1 H        2.106     2.040    -0.003
   285   1 H        2.038     0.845    -0.001
   286   1 H        1.804    14.328    -0.024
   287   1 H        1.997     8.301    -0.014
   288   1 H        2.081     1.062    -0.002
   289   1 H        2.006     9.044    -0.015
   290   1 H        2.200     0.004    -0.000
   291  15 P        2.787     9.107    -0.002
   292   8 O        2.082    26.235    -0.003
   293   8 O        2.105    24.276    -0.003
   294   8 O        2.328     1.940    -0.000
   295   6 C        2.468     0.089    -0.000
   296   6 C        2.607     0.019    -0.000
   297   8 O        2.450     1.879    -0.000
   298   6 C        2.690     0.000    -0.000
   299   8 O        2.453     2.278    -0.000
   300   6 C        2.613     0.002    -0.000
   301   8 O        2.193     3.869    -0.000
   302   6 C        2.726     0.556    -0.000
   303   7 N        2.793     0.876    -0.000
   304   6 C        2.694     4.854    -0.000
   305   7 N        2.535     4.345    -0.000
   306   6 C        3.203     0.978    -0.000
   307   6 C        3.090     0.118    -0.000
   308   7 N        2.756     0.000     0.000
   309   7 N        2.628     1.157    -0.000
   310   6 C        2.680     3.791    -0.000
   311   7 N        2.482     7.440    -0.001
   312   6 C        3.113     3.150    -0.000
   313   1 H        1.904    11.200    -0.019
   314   1 H        1.916     9.015    -0.015
   315   1 H        1.990    10.720    -0.018
   316   1 H        2.048     3.955    -0.007
   317   1 H        2.013     8.576    -0.014
   318   1 H        1.855     2.222    -0.004
   319   1 H        2.019    13.045    -0.022
   320   1 H        1.990     6.550    -0.011
   321   1 H        2.523     0.000    -0.000
   322   1 H        2.313     0.223    -0.000
   323   1 H        2.010     9.023    -0.015
   324  15 P        2.814     8.218    -0.002
   325   8 O        2.083    27.808    -0.003
   326   8 O        2.136    15.484    -0.002
   327   8 O        2.282    10.605    -0.001
   328   6 C        2.490     1.188    -0.000
   329   6 C        2.666     0.020    -0.000
   330   8 O        2.522     0.114    -0.000
   331   6 C        2.698     0.000     0.000
   332   8 O        2.433     3.088    -0.000
   333   6 C        2.660     0.007    -0.000
   334   8 O        2.316     0.006    -0.000
   335   6 C        2.782     0.000    -0.000
   336   7 N        2.747     0.007    -0.000
   337   6 C        2.770     0.399    -0.000
   338   8 O        2.373     0.012    -0.000
   339   7 N        2.518     0.595    -0.000
   340   6 C        2.609     4.374    -0.000
   341   8 O        2.192     7.165    -0.001
   342   6 C        2.578     7.774    -0.001
   343   6 C        2.689     1.656    -0.000
   344   1 H        1.900    15.050    -0.025
   345   1 H        1.943     5.566    -0.009
   346   1 H        2.070     4.683    -0.008
   347   1 H        2.067     3.051    -0.005
   348   1 H        2.035    11.993    -0.020
   349   1 H        1.953     0.860    -0.001
   350   1 H        2.040     4.986    -0.008
   351   1 H        2.136     0.028    -0.000
   352   1 H        1.951    22.580    -0.038
   353   1 H        2.057     3.655    -0.006
   354  15 P        2.827     5.867    -0.001
   355   8 O        2.107    18.230    -0.002
   356   8 O        2.109    20.689    -0.002
   357   8 O        2.359     0.329    -0.000
   358   6 C        2.552     0.173    -0.000
   359   6 C        2.687     0.034    -0.000
   360   8 O        2.483     2.634    -0.000
   361   6 C        2.683     0.000    -0.000
   362   8 O        2.364     5.336    -0.001
   363   6 C        2.578     0.040    -0.000
   364   8 O        2.098    13.271    -0.001
   365   6 C        2.724     0.022    -0.000
   366   7 N        2.696     0.049    -0.000
   367   6 C        2.661     2.842    -0.000
   368   8 O        2.187     0.790    -0.000
   369   7 N        2.486     2.029    -0.000
   370   6 C        2.664     2.919    -0.000
   371   8 O        2.267     0.092    -0.000
   372   6 C        2.660     2.637    -0.000
   373   6 C        2.729     1.195    -0.000
   374   1 H        2.003     3.852    -0.006
   375   1 H        1.933     6.163    -0.010
   376   1 H        2.090     3.659    -0.006
   377   1 H        2.079     0.123    -0.000
   378   1 H        2.003     7.406    -0.012
   379   1 H        1.774    14.187    -0.024
   380   1 H        1.998     5.436    -0.009
   381   1 H        2.127     3.962    -0.007
   382   1 H        2.047     2.705    -0.005
   383   1 H        2.091     3.519    -0.006
   384  15 P        2.794    10.430    -0.002
   385   8 O        2.075    26.959    -0.003
   386   8 O        2.121    12.791    -0.001
   387   8 O        2.363     1.235    -0.000
   388   6 C        2.466     0.503    -0.000
   389   6 C        2.568     0.185    -0.000
   390   8 O        2.377    10.413    -0.001
   391   6 C        2.693     0.000     0.000
   392   8 O        2.373     4.392    -0.000
   393   6 C        2.594     0.189    -0.000
   394   8 O        2.099    12.422    -0.001
   395   6 C        2.685     0.530    -0.000
   396   7 N        2.779     0.909    -0.000
   397   6 C        2.653     7.014    -0.001
   398   7 N        2.431    17.311    -0.001
   399   6 C        2.928     3.392    -0.000
   400   6 C        2.650     4.270    -0.000
   401   8 O        2.164    13.392    -0.001
   402   7 N        2.548     1.963    -0.000
   403   6 C        2.691     4.605    -0.000
   404   7 N        2.225     5.907    -0.000
   405   7 N        2.510     8.054    -0.001
   406   6 C        3.051     3.306    -0.000
   407   1 H        1.932     5.431    -0.009
   408   1 H        1.886    14.967    -0.025
   409   1 H        1.943    12.945    -0.022
   410   1 H        2.130     0.619    -0.001
   411   1 H        2.056     1.300    -0.002
   412   1 H        1.792    14.556    -0.024
   413   1 H        1.976    13.738    -0.023
   414   1 H        1.981     3.586    -0.006
   415   1 H        2.240     0.922    -0.002
   416   1 H        1.975     2.593    -0.004
   417   1 H        1.864    24.473    -0.041
   418  15 P        2.828     1.983    -0.000
   419   8 O        2.096    24.547    -0.003
   420   8 O        2.205     1.208    -0.000
   421   8 O        2.371     0.051    -0.000
   422   6 C        2.460     0.510    -0.000
   423   6 C        2.573     0.188    -0.000
   424   8 O        2.402     8.293    -0.001
   425   6 C        2.699     0.000     0.000
   426   8 O        2.358     5.356    -0.001
   427   6 C        2.608    -0.001     0.000
   428   8 O        2.104     8.970    -0.001
   429   6 C        2.710     0.588    -0.000
   430   7 N        2.857     0.860    -0.000
   431   6 C        2.761     0.752    -0.000
   432   7 N        2.580     2.508    -0.000
   433   6 C        3.128     0.070    -0.000
   434   6 C        2.785     0.003    -0.000
   435   8 O        2.286     0.222    -0.000
   436   7 N        2.568     0.181    -0.000
   437   6 C        2.699     3.627    -0.000
   438   7 N        2.209     7.030    -0.000
   439   7 N        2.528     7.095    -0.000
   440   6 C        3.146     2.624    -0.000
   441   1 H        1.894    10.996    -0.018
   442   1 H        1.895    13.777    -0.023
   443   1 H        1.944    15.334    -0.026
   444   1 H        2.142     0.512    -0.001
   445   1 H        2.060     0.104    -0.000
   446   1 H        1.760    19.026    -0.032
   447   1 H        1.986    12.278    -0.021
   448   1 H        2.058     0.892    -0.001
   449   1 H        2.110     0.093    -0.000
   450   1 H        1.890    12.547    -0.021
   451   1 H        1.860    25.331    -0.043
   452  15 P        2.798     9.796    -0.002
   453   8 O        2.080    27.535    -0.003
   454   8 O        2.122    13.910    -0.002
   455   8 O        2.359     0.647    -0.000
   456   6 C        2.464     0.423    -0.000
   457   6 C        2.582     0.130    -0.000
   458   8 O        2.459     2.759    -0.000
   459   6 C        2.691     0.000    -0.000
   460   8 O        2.358     5.038    -0.001
   461   6 C        2.632     0.001    -0.000
   462   8 O        2.121     9.294    -0.001
   463   6 C        2.735     0.144    -0.000
   464   7 N        2.784     0.005    -0.000
   465   6 C        2.834     0.435    -0.000
   466   8 O        2.261     7.612    -0.001
   467   7 N        2.778     0.001    -0.000
   468   6 C        2.939     0.037    -0.000
   469   7 N        2.391     0.052    -0.000
   470   6 C        2.804     2.510    -0.000
   471   6 C        2.797     1.083    -0.000
   472   1 H        1.910     8.662    -0.015
   473   1 H        1.895    13.393    -0.022
   474   1 H        1.956    11.861    -0.020
   475   1 H        2.101     2.536    -0.004
   476   1 H        2.112     0.000    -0.000
   477   1 H        1.804    13.644    -0.023
   478   1 H        1.984    12.543    -0.021
   479   1 H        2.177     0.000    -0.000
   480   1 H        1.966     9.673    -0.016
   481   1 H        2.075     8.666    -0.015
   482   1 H        2.098     0.392    -0.001
   483  15 P        2.790    10.066    -0.002
   484   8 O        2.077    27.887    -0.003
   485   8 O        2.104    25.816    -0.003
   486   8 O        2.357     1.149    -0.000
   487   6 C        2.472     0.376    -0.000
   488   6 C        2.589     0.103    -0.000
   489   8 O        2.483     1.700    -0.000
   490   6 C        2.686     0.002    -0.000
   491   8 O        2.364     3.931    -0.000
   492   6 C        2.660     0.004    -0.000
   493   8 O        2.152    11.000    -0.001
   494   6 C        2.772     0.025    -0.000
   495   7 N        2.958     0.000    -0.000
   496   6 C        2.837     3.210    -0.000
   497   7 N        2.670     8.485    -0.001
   498   6 C        3.389     0.224    -0.000
   499   6 C        3.033     0.020    -0.000
   500   7 N        2.366     0.120    -0.000
   501   7 N        2.802     0.000     0.000
   502   6 C        2.915     0.055    -0.000
   503   7 N        2.648     4.153    -0.000
   504   6 C        3.373     0.000     0.000
   505   1 H        1.920     7.794    -0.013
   506   1 H        1.897    13.695    -0.023
   507   1 H        1.960    15.426    -0.026
   508   1 H        2.074     3.926    -0.007
   509   1 H        2.167     0.001    -0.000
   510   1 H        1.858     1.279    -0.002
   511   1 H        2.028     7.697    -0.013
   512   1 H        2.062     3.107    -0.005
   513   1 H        1.993     1.752    -0.003
   514   1 H        2.013     1.858    -0.003
   515   1 H        2.139     3.031    -0.005
   516  15 P        2.799     9.451    -0.002
   517   8 O        2.080    27.326    -0.003
   518   8 O        2.117    21.760    -0.002
   519   8 O        2.363     0.865    -0.000
   520   6 C        2.460     0.412    -0.000
   521   6 C        2.583     0.108    -0.000
   522   8 O        2.449     3.485    -0.000
   523   6 C        2.700     0.001    -0.000
   524   8 O        2.360     5.352    -0.001
   525   6 C        2.631     0.087    -0.000
   526   8 O        2.121     9.623    -0.001
   527   6 C        2.732     0.416    -0.000
   528   7 N        2.779     0.109    -0.000
   529   6 C        2.799     0.281    -0.000
   530   8 O        2.234    10.115    -0.001
   531   7 N        2.717     0.000     0.000
   532   6 C        2.907     0.000     0.000
   533   7 N        2.396     0.000    -0.000
   534   6 C        2.762     1.141    -0.000
   535   6 C        2.791     0.471    -0.000
   536   1 H        1.902    11.320    -0.019
   537   1 H        1.891    14.222    -0.024
   538   1 H        1.952    11.910    -0.020
   539   1 H        2.118     1.646    -0.003
   540   1 H        2.091     0.006    -0.000
   541   1 H        1.807    13.636    -0.023
   542   1 H        1.981    14.190    -0.024
   543   1 H        2.158     0.000     0.000
   544   1 H        2.021     0.638    -0.001
   545   1 H        2.036     4.409    -0.007
   546   1 H        2.144     0.071    -0.000
   547  15 P        2.796     7.480    -0.002
   548   8 O        2.079    26.964    -0.003
   549   8 O        2.105    25.444    -0.003
   550   8 O        2.383     0.083    -0.000
   551   6 C        2.483     0.299    -0.000
   552   6 C        2.589     0.166    -0.000
   553   8 O        2.451     4.637    -0.001
   554   6 C        2.708     0.000     0.000
   555   8 O        2.366     5.031    -0.001
   556   6 C        2.632     0.000     0.000
   557   8 O        2.115     8.905    -0.001
   558   6 C        2.744     0.102    -0.000
   559   7 N        2.820     0.000    -0.000
   560   6 C        2.832     0.000    -0.000
   561   8 O        2.226    10.714    -0.001
   562   7 N        2.766     0.000     0.000
   563   6 C        2.947     0.000    -0.000
   564   8 O        2.489     0.025    -0.000
   565   6 C        2.810     0.373    -0.000
   566   6 C        2.837     0.336    -0.000
   567   1 H        1.924     6.577    -0.011
   568   1 H        1.911    12.251    -0.021
   569   1 H        1.953    15.316    -0.026
   570   1 H        2.134     0.979    -0.002
   571   1 H        2.122     0.000    -0.000
   572   1 H        1.767    17.113    -0.029
   573   1 H        1.991     9.070    -0.015
   574   1 H        2.376     0.002    -0.000
   575   1 H        2.083     8.340    -0.014
   576   1 H        2.141     0.254    -0.000
   577  15 P        2.790     9.888    -0.002
   578   8 O        2.073    28.558    -0.003
   579   8 O        2.104    21.387    -0.002
   580   8 O        2.363     0.811    -0.000
   581   6 C        2.480     0.382    -0.000
   582   6 C        2.593     0.130    -0.000
   583   8 O        2.480     2.071    -0.000
   584   6 C        2.700     0.000    -0.000
   585   8 O        2.364     5.333    -0.001
   586   6 C        2.671     0.000    -0.000
   587   8 O        2.152     8.224    -0.001
   588   6 C        2.776     0.044    -0.000
   589   7 N        2.966     0.011    -0.000
   590   6 C        2.839     3.435    -0.000
   591   7 N        2.675     9.045    -0.001
   592   6 C        3.283     0.906    -0.000
   593   6 C        2.901     0.334    -0.000
   594   8 O        2.283     8.889    -0.001
   595   7 N        2.924     0.000     0.000
   596   6 C        3.069     0.000    -0.000
   597   7 N        2.434     0.054    -0.000
   598   7 N        2.730     1.514    -0.000
   599   6 C        3.363     0.002    -0.000
   600   1 H        1.940     5.474    -0.009
   601   1 H        1.895    14.691    -0.025
   602   1 H        1.956    15.524    -0.026
   603   1 H        2.095     3.133    -0.005
   604   1 H        2.182     0.060    -0.000
   605   1 H        1.809     9.617    -0.016
   606   1 H        2.025    10.204    -0.017
   607   1 H        2.082     1.498    -0.003
   608   1 H        2.556     0.000     0.000
   609   1 H        2.136     0.082    -0.000
   610   1 H        1.968    13.524    -0.023
   611  15 P        2.806     8.754    -0.002
   612   8 O        2.086    25.981    -0.003
   613   8 O        2.113    23.122    -0.003
   614   8 O        2.410     0.036    -0.000
   615   6 C        2.481     0.567    -0.000
   616   6 C        2.604     0.071    -0.000
   617   8 O        2.502     0.003    -0.000
   618   6 C        2.717     0.000     0.000
   619   8 O        2.366     5.480    -0.001
   620   6 C        2.638     0.207    -0.000
   621   8 O        2.119    11.924    -0.001
   622   6 C        2.793     0.000    -0.000
   623   7 N        2.979     0.000     0.000
   624   6 C        2.788     0.153    -0.000
   625   7 N        2.534    11.578    -0.001
   626   6 C        3.263     0.277    -0.000
   627   6 C        3.002     0.144    -0.000
   628   7 N        2.338     2.794    -0.000
   629   7 N        2.782     0.545    -0.000
   630   6 C        2.899     0.194    -0.000
   631   7 N        2.685     2.243    -0.000
   632   6 C        3.359     0.000     0.000
   633   1 H        1.913    12.800    -0.021
   634   1 H        1.909    12.270    -0.021
   635   1 H        1.950    12.622    -0.021
   636   1 H        2.139     0.883    -0.001
   637   1 H        2.084     0.704    -0.001
   638   1 H        1.805    14.268    -0.024
   639   1 H        2.051     3.186    -0.005
   640   1 H        2.088     4.914    -0.008
   641   1 H        2.009     9.865    -0.017
   642   1 H        1.935    18.281    -0.031
   643   1 H        2.187     1.394    -0.002
   644  15 P        2.806     7.068    -0.001
   645   8 O        2.083    25.615    -0.003
   646   8 O        2.110    21.816    -0.002
   647   8 O        2.417     0.018    -0.000
   648   6 C        2.498     0.424    -0.000
   649   6 C        2.604     0.150    -0.000
   650   8 O        2.465     5.683    -0.001
   651   6 C        2.725     0.000     0.000
   652   8 O        2.371     5.015    -0.001
   653   6 C        2.632     0.233    -0.000
   654   8 O        2.115    12.809    -0.001
   655   6 C        2.775     0.041    -0.000
   656   7 N        2.981     0.000    -0.000
   657   6 C        2.825     0.016    -0.000
   658   7 N        2.588     4.556    -0.000
   659   6 C        3.283     0.002    -0.000
   660   6 C        2.869     0.011    -0.000
   661   8 O        2.244     7.887    -0.001
   662   7 N        2.738     0.000    -0.000
   663   6 C        2.934     0.000    -0.000
   664   7 N        2.301     0.734    -0.000
   665   7 N        2.723     2.480    -0.000
   666   6 C        3.424     0.000     0.000
   667   1 H        1.940     5.907    -0.010
   668   1 H        1.914    12.237    -0.021
   669   1 H        1.953    12.928    -0.022
   670   1 H        2.162     0.088    -0.000
   671   1 H        2.079     0.515    -0.001
   672   1 H        1.808    14.192    -0.024
   673   1 H        2.026     9.964    -0.017
   674   1 H        2.126     0.000    -0.000
   675   1 H        2.180     0.000     0.000
   676   1 H        1.946     8.615    -0.014
   677   1 H        1.915    17.798    -0.030
   678  15 P        2.796     7.912    -0.002
   679   8 O        2.076    28.484    -0.003
   680   8 O        2.113    19.122    -0.002
   681   8 O        2.370     0.177    -0.000
   682   6 C        2.479     0.435    -0.000
   683   6 C        2.590     0.162    -0.000
   684   8 O        2.464     4.601    -0.001
   685   6 C        2.700     0.000     0.000
   686   8 O        2.360     4.922    -0.001
   687   6 C        2.620     0.052    -0.000
   688   8 O        2.113    10.676    -0.001
   689   6 C        2.743     0.028    -0.000
   690   7 N        2.803     0.000     0.000
   691   6 C        2.809     0.001    -0.000
   692   8 O        2.242     7.604    -0.001
   693   7 N        2.698     0.000     0.000
   694   6 C        2.903     0.117    -0.000
   695   7 N        2.337     0.086    -0.000
   696   6 C        2.821     2.794    -0.000
   697   6 C        2.826     0.857    -0.000
   698   1 H        1.939     5.799    -0.010
   699   1 H        1.896    14.380    -0.024
   700   1 H        1.955    11.994    -0.020
   701   1 H        2.125     1.459    -0.002
   702   1 H        2.079     0.003    -0.000
   703   1 H        1.805    13.696    -0.023
   704   1 H        1.991     9.104    -0.015
   705   1 H        2.063     0.025    -0.000
   706   1 H        1.937    13.816    -0.023
   707   1 H        2.081     6.411    -0.011
   708   1 H        2.128     0.017    -0.000
   709  15 P        2.787    10.074    -0.002
   710   8 O        2.073    28.190    -0.003
   711   8 O        2.105    21.991    -0.002
   712   8 O        2.348     1.142    -0.000
   713   6 C        2.463     0.442    -0.000
   714   6 C        2.580     0.141    -0.000
   715   8 O        2.456     2.473    -0.000
   716   6 C        2.686     0.000    -0.000
   717   8 O        2.359     4.664    -0.001
   718   6 C        2.654     0.007    -0.000
   719   8 O        2.136    12.072    -0.001
   720   6 C        2.750     0.034    -0.000
   721   7 N        2.904     0.000     0.000
   722   6 C        2.773     2.247    -0.000
   723   7 N        2.576     8.165    -0.001
   724   6 C        3.237     0.084    -0.000
   725   6 C        2.922     0.002    -0.000
   726   7 N        2.300     0.639    -0.000
   727   7 N        2.681     0.000     0.000
   728   6 C        2.781     0.248    -0.000
   729   7 N        2.574     4.722    -0.000
   730   6 C        3.267     0.000     0.000
   731   1 H        1.916     8.167    -0.014
   732   1 H        1.890    14.619    -0.025
   733   1 H        1.954    15.367    -0.026
   734   1 H        2.084     2.429    -0.004
   735   1 H        2.164     0.000    -0.000
   736   1 H        1.842     3.590    -0.006
   737   1 H        2.009    10.083    -0.017
   738   1 H        2.047     1.824    -0.003
   739   1 H        1.957     4.194    -0.007
   740   1 H        1.936    13.812    -0.023
   741   1 H        2.049     5.037    -0.008
   742  15 P        2.797     8.736    -0.002
   743   8 O        2.078    27.398    -0.003
   744   8 O        2.110    20.896    -0.002
   745   8 O        2.385     0.189    -0.000
   746   6 C        2.470     0.363    -0.000
   747   6 C        2.587     0.095    -0.000
   748   8 O        2.455     4.085    -0.000
   749   6 C        2.699     0.000     0.000
   750   8 O        2.357     4.306    -0.000
   751   6 C        2.608     0.150    -0.000
   752   8 O        2.104    13.757    -0.002
   753   6 C        2.741     0.090    -0.000
   754   7 N        2.794     0.000     0.000
   755   6 C        2.780     0.000     0.000
   756   8 O        2.231     5.571    -0.001
   757   7 N        2.612     0.000    -0.000
   758   6 C        2.684     0.361    -0.000
   759   8 O        2.198     9.625    -0.001
   760   6 C        2.658     3.468    -0.000
   761   6 C        2.788     0.528    -0.000
   762   1 H        1.905     8.434    -0.014
   763   1 H        1.901    11.951    -0.020
   764   1 H        1.949    15.101    -0.025
   765   1 H        2.140     1.034    -0.002
   766   1 H        2.054     0.307    -0.001
   767   1 H        1.776    10.857    -0.018
   768   1 H        1.990    11.065    -0.019
   769   1 H        2.346     0.000    -0.000
   770   1 H        1.996    10.371    -0.017
   771   1 H        2.188     0.000    -0.000
   772  15 P        2.785     8.821    -0.002
   773   8 O        2.073    27.844    -0.003
   774   8 O        2.106    22.250    -0.002
   775   8 O        2.342     1.026    -0.000
   776   6 C        2.456     0.473    -0.000
   777   6 C        2.570     0.094    -0.000
   778   8 O        2.431     3.864    -0.000
   779   6 C        2.677     0.007    -0.000
   780   8 O        2.364     4.316    -0.000
   781   6 C        2.658     0.000     0.000
   782   8 O        2.164     4.937    -0.001
   783   6 C        2.745     0.169    -0.000
   784   7 N        2.878     0.036    -0.000
   785   6 C        2.752     3.987    -0.000
   786   7 N        2.579     7.947    -0.001
   787   6 C        3.254     1.871    -0.000
   788   6 C        3.032     0.721    -0.000
   789   7 N        2.382     2.781    -0.000
   790   7 N        2.794     0.000    -0.000
   791   6 C        2.825     0.203    -0.000
   792   7 N        2.586     3.300    -0.000
   793   6 C        3.258     0.096    -0.000
   794   1 H        1.908     6.890    -0.012
   795   1 H        1.887    14.832    -0.025
   796   1 H        1.946    16.279    -0.027
   797   1 H        2.065     4.454    -0.007
   798   1 H        2.159     0.145    -0.000
   799   1 H        1.813     8.859    -0.015
   800   1 H        2.014    12.272    -0.021
   801   1 H        2.045     0.930    -0.002
   802   1 H        2.051     4.044    -0.007
   803   1 H        1.962    11.409    -0.019
   804   1 H        2.087     2.536    -0.004
   805  15 P        2.796    10.059    -0.002
   806   8 O        2.074    28.277    -0.003
   807   8 O        2.114    18.792    -0.002
   808   8 O        2.380     0.706    -0.000
   809   6 C        2.468     0.369    -0.000
   810   6 C        2.590     0.101    -0.000
   811   8 O        2.459     1.367    -0.000
   812   6 C        2.714     0.000     0.000
   813   8 O        2.360     5.337    -0.001
   814   6 C        2.642     0.109    -0.000
   815   8 O        2.119    10.796    -0.001
   816   6 C        2.747     0.019    -0.000
   817   7 N        2.817     0.000     0.000
   818   6 C        2.835     0.000     0.000
   819   8 O        2.257     3.713    -0.000
   820   7 N        2.720     0.000    -0.000
   821   6 C        2.879     0.063    -0.000
   822   7 N        2.315     1.803    -0.000
   823   6 C        2.724     0.850    -0.000
   824   6 C        2.800     0.189    -0.000
   825   1 H        1.906    10.682    -0.018
   826   1 H        1.894    13.728    -0.023
   827   1 H        1.951    12.183    -0.020
   828   1 H        2.153     0.653    -0.001
   829   1 H        2.150     0.001    -0.000
   830   1 H        1.808    13.766    -0.023
   831   1 H        1.989    11.074    -0.019
   832   1 H        2.007     2.205    -0.004
   833   1 H        1.907    18.347    -0.031
   834   1 H        1.993    10.184    -0.017
   835   1 H        2.184     0.000    -0.000
   836  15 P        2.787    10.328    -0.002
   837   8 O        2.070    28.751    -0.003
   838   8 O        2.100    23.355    -0.003
   839   8 O        2.365     1.177    -0.000
   840   6 C        2.482     0.311    -0.000
   841   6 C        2.598     0.122    -0.000
   842   8 O        2.502     2.123    -0.000
   843   6 C        2.702     0.002    -0.000
   844   8 O        2.377     4.288    -0.000
   845   6 C        2.657     0.000     0.000
   846   8 O        2.154     5.222    -0.001
   847   6 C        2.787     0.035    -0.000
   848   7 N        2.829     0.000     0.000
   849   6 C        2.850     0.001    -0.000
   850   8 O        2.367     1.912    -0.000
   851   7 N        2.610     0.000    -0.000
   852   6 C        2.727     0.442    -0.000
   853   8 O        2.216    11.763    -0.001
   854   6 C        2.723     3.189    -0.000
   855   6 C        2.814     0.968    -0.000
   856   1 H        1.936     6.360    -0.011
   857   1 H        1.899    14.044    -0.024
   858   1 H        1.962    15.211    -0.026
   859   1 H        2.093     2.208    -0.004
   860   1 H        2.132     0.000    -0.000
   861   1 H        1.795    10.431    -0.018
   862   1 H        2.053     2.928    -0.005
   863   1 H        2.271     0.000    -0.000
   864   1 H        2.026    12.234    -0.021
   865   1 H        2.134     0.291    -0.000
   866  15 P        2.809     7.209    -0.001
   867   8 O        2.078    26.461    -0.003
   868   8 O        2.126    14.661    -0.002
   869   8 O        2.412     0.000    -0.000
   870   6 C        2.490     0.147    -0.000
   871   6 C        2.593     0.121    -0.000
   872   8 O        2.444     4.243    -0.000
   873   6 C        2.722     0.000     0.000
   874   8 O        2.364     4.612    -0.001
   875   6 C        2.643     0.075    -0.000
   876   8 O        2.115    13.475    -0.001
   877   6 C        2.748     0.356    -0.000
   878   7 N        2.823     0.066    -0.000
   879   6 C        2.828     0.007    -0.000
   880   8 O        2.244     4.396    -0.000
   881   7 N        2.718     0.000    -0.000
   882   6 C        2.969     0.001    -0.000
   883   7 N        2.386     0.376    -0.000
   884   6 C        2.827     0.002    -0.000
   885   6 C        2.843     0.002    -0.000
   886   1 H        1.903     8.819    -0.015
   887   1 H        1.924    10.884    -0.018
   888   1 H        1.947    15.836    -0.027
   889   1 H        2.172     0.000     0.000
   890   1 H        2.376     0.003    -0.000
   891   1 H        1.796     9.425    -0.016
   892   1 H        1.992    11.330    -0.019
   893   1 H        2.081     0.546    -0.001
   894   1 H        1.971     7.871    -0.013
   895   1 H        2.051     3.201    -0.005
   896   1 H        2.191     0.000     0.000
   897  15 P        2.778     9.853    -0.002
   898   8 O        2.065    29.112    -0.003
   899   8 O        2.099    18.262    -0.002
   900   8 O        2.331     2.477    -0.000
   901   6 C        2.455     0.441    -0.000
   902   6 C        2.561     0.014    -0.000
   903   8 O        2.549     0.672    -0.000
   904   6 C        2.506     0.362    -0.000
   905   8 O        2.045    28.177    -0.003
   906   6 C        2.525     0.349    -0.000
   907   8 O        2.077    17.283    -0.002
   908   6 C        2.749     0.006    -0.000
   909   7 N        2.799     0.070    -0.000
   910   6 C        2.800     2.501    -0.000
   911   8 O        2.270     3.955    -0.000
   912   7 N        2.642     3.214    -0.000
   913   6 C        2.820     3.792    -0.000
   914   7 N        2.255     3.942    -0.000
   915   6 C        2.726     4.467    -0.000
   916   6 C        2.790     2.377    -0.000
   917   1 H        1.930     4.989    -0.008
   918   1 H        1.869    16.753    -0.028
   919   1 H        1.943    11.822    -0.020
   920   1 H        1.965    11.743    -0.020
   921   1 H        1.946    15.064    -0.025
   922   1 H        1.787    14.275    -0.024
   923   1 H        2.030     1.678    -0.003
   924   1 H        1.921     8.020    -0.013
   925   1 H        1.884    17.121    -0.029
   926   1 H        1.992     7.791    -0.013
   927   1 H        2.113     0.441    -0.001
   928   8 O        2.114     3.228    -0.000
   929   6 C        2.376     1.866    -0.000
   930   6 C        2.568     0.280    -0.000
   931   8 O        2.418     7.275    -0.001
   932   6 C        2.699     0.000    -0.000
   933   8 O        2.358     5.929    -0.001
   934   6 C        2.613     0.380    -0.000
   935   6 C        2.728     0.122    -0.000
   936   7 N        2.788     0.000     0.000
   937   6 C        2.834     0.027    -0.000
   938   8 O        2.254     9.288    -0.001
   939   7 N        2.759     0.000    -0.000
   940   6 C        2.937     0.341    -0.000
   941   7 N        2.442     2.587    -0.000
   942   6 C        2.777     0.019    -0.000
   943   6 C        2.774     0.084    -0.000
   944   1 H        1.865    16.652    -0.028
   945   1 H        1.848    20.963    -0.035
   946   1 H        1.937    16.506    -0.028
   947   1 H        2.129     0.000     0.000
   948   1 H        2.085     0.215    -0.000
   949   1 H        1.965    12.434    -0.021
   950   1 H        1.987    13.924    -0.023
   951   1 H        2.187     0.316    -0.001
   952   1 H        2.140     2.818    -0.005
   953   1 H        2.081     0.279    -0.000
   954   1 H        2.080     2.487    -0.004
   955   1 H        1.870     0.483    -0.001
   956  15 P        2.796     9.803    -0.002
   957   8 O        2.080    26.669    -0.003
   958   8 O        2.120    11.971    -0.001
   959   8 O        2.366     0.866    -0.000
   960   6 C        2.464     0.458    -0.000
   961   6 C        2.568     0.167    -0.000
   962   8 O        2.472     3.118    -0.000
   963   6 C        2.640     0.091    -0.000
   964   8 O        2.345     7.118    -0.001
   965   6 C        2.658     0.071    -0.000
   966   6 C        2.774     0.116    -0.000
   967   7 N        2.965     0.001    -0.000
   968   6 C        2.854     0.231    -0.000
   969   7 N        2.770     0.000     0.000
   970   6 C        3.619     0.000     0.000
   971   6 C        3.304     0.000     0.000
   972   7 N        2.520     0.000     0.000
   973   7 N        3.062     0.000     0.000
   974   6 C        3.087     0.159    -0.000
   975   7 N        2.776     2.188    -0.000
   976   6 C        3.573     0.000    -0.000
   977   1 H        1.904    11.001    -0.018
   978   1 H        1.896    13.478    -0.023
   979   1 H        1.941    16.847    -0.028
   980   1 H        1.993     9.105    -0.015
   981   1 H        2.044     8.576    -0.014
   982   1 H        2.133     0.000    -0.000
   983   1 H        2.044     9.037    -0.015
   984   1 H        2.082     0.352    -0.001
   985   1 H        2.106     0.000     0.000
   986   1 H        2.204     0.000     0.000
   987   1 H        2.162     5.182    -0.009
   988  15 P        2.787     9.452    -0.002
   989   8 O        2.080    25.785    -0.003
   990   8 O        2.088    26.713    -0.003
   991   8 O        2.383     0.051    -0.000
   992   6 C        2.465     0.451    -0.000
   993   6 C        2.584     0.187    -0.000
   994   8 O        2.478     4.253    -0.000
   995   6 C        2.673     0.056    -0.000
   996   8 O        2.348     6.919    -0.001
   997   6 C        2.684     0.000     0.000
   998   6 C        2.792     0.029    -0.000
   999   7 N        3.093     0.000     0.000
  1000   6 C        3.037     0.000    -0.000
  1001   7 N        2.933     0.176    -0.000
  1002   6 C        3.646     0.000     0.000
  1003   6 C        3.043     0.000     0.000
  1004   8 O        2.393     0.001    -0.000
  1005   7 N        2.857     0.000     0.000
  1006   6 C        2.976     0.000     0.000
  1007   7 N        2.373     0.234    -0.000
  1008   7 N        2.715     1.575    -0.000
  1009   6 C        3.555     0.000     0.000
  1010   1 H        1.894    13.857    -0.023
  1011   1 H        1.904    12.543    -0.021
  1012   1 H        1.956    16.350    -0.027
  1013   1 H        2.036     3.517    -0.006
  1014   1 H        2.117     0.030    -0.000
  1015   1 H        2.083     2.632    -0.004
  1016   1 H        2.043    11.454    -0.019
  1017   1 H        2.148     0.183    -0.000
  1018   1 H        2.491     0.000     0.000
  1019   1 H        2.094     0.153    -0.000
  1020   1 H        1.948    10.894    -0.018
  1021  15 P        2.787     9.617    -0.002
  1022   8 O        2.079    25.880    -0.003
  1023   8 O        2.084    28.544    -0.003
  1024   8 O        2.387     0.757    -0.000
  1025   6 C        2.465     0.467    -0.000
  1026   6 C        2.588     0.110    -0.000
  1027   8 O        2.531     0.619    -0.000
  1028   6 C        2.642     0.031    -0.000
  1029   8 O        2.341     7.290    -0.001
  1030   6 C        2.664     0.002    -0.000
  1031   6 C        2.800     0.006    -0.000
  1032   7 N        2.852     0.000     0.000
  1033   6 C        2.908     0.000     0.000
  1034   8 O        2.307     3.077    -0.000
  1035   7 N        2.731     0.000     0.000
  1036   6 C        2.841     0.633    -0.000
  1037   8 O        2.266     4.697    -0.001
  1038   6 C        2.850     1.353    -0.000
  1039   6 C        2.495     2.140    -0.000
  1040   6 C        2.881     1.858    -0.000
  1041   1 H        1.898    13.379    -0.022
  1042   1 H        1.904    12.353    -0.021
  1043   1 H        1.967    14.779    -0.025
  1044   1 H        1.985    11.134    -0.019
  1045   1 H        2.025     6.973    -0.012
  1046   1 H        2.159     0.000    -0.000
  1047   1 H        2.052     3.872    -0.007
  1048   1 H        2.369     0.000     0.000
  1049   1 H        1.955     6.944    -0.012
  1050   1 H        1.891    22.713    -0.038
  1051   1 H        1.978     7.182    -0.012
  1052   1 H        2.098     4.412    -0.007
  1053  15 P        2.793     8.481    -0.002
  1054   8 O        2.082    25.632    -0.003
  1055   8 O        2.088    26.723    -0.003
  1056   8 O        2.405     0.075    -0.000
  1057   6 C        2.467     0.425    -0.000
  1058   6 C        2.580     0.131    -0.000
  1059   8 O        2.472     2.752    -0.000
  1060   6 C        2.657     0.073    -0.000
  1061   8 O        2.342     6.894    -0.001
  1062   6 C        2.666     0.000     0.000
  1063   6 C        2.768     0.080    -0.000
  1064   7 N        2.968     0.000     0.000
  1065   6 C        2.923    -0.000     0.000
  1066   7 N        2.767     0.516    -0.000
  1067   6 C        3.374     0.000     0.000
  1068   6 C        2.950     0.000    -0.000
  1069   8 O        2.295     4.757    -0.001
  1070   7 N        2.841     0.000     0.000
  1071   6 C        2.919     0.003    -0.000
  1072   7 N        2.332     1.160    -0.000
  1073   7 N        2.668     3.132    -0.000
  1074   6 C        3.386     0.000     0.000
  1075   1 H        1.891    14.670    -0.025
  1076   1 H        1.913    11.846    -0.020
  1077   1 H        1.955    16.025    -0.027
  1078   1 H        2.019     5.206    -0.009
  1079   1 H        2.071     0.780    -0.001
  1080   1 H        2.101     1.310    -0.002
  1081   1 H        2.035    11.794    -0.020
  1082   1 H        2.122     0.073    -0.000
  1083   1 H        2.488     0.000    -0.000
  1084   1 H        2.120     1.429    -0.002
  1085   1 H        1.916    17.728    -0.030
  1086  15 P        2.787     8.616    -0.002
  1087   8 O        2.081    25.505    -0.003
  1088   8 O        2.082    27.489    -0.003
  1089   8 O        2.403     0.027    -0.000
  1090   6 C        2.463     0.384    -0.000
  1091   6 C        2.577     0.153    -0.000
  1092   8 O        2.457     2.816    -0.000
  1093   6 C        2.654     0.029    -0.000
  1094   8 O        2.341     6.616    -0.001
  1095   6 C        2.651     0.002    -0.000
  1096   6 C        2.747     0.074    -0.000
  1097   7 N        2.786     0.000     0.000
  1098   6 C        2.774     0.009    -0.000
  1099   8 O        2.234     2.456    -0.000
  1100   7 N        2.624     0.000     0.000
  1101   6 C        2.864     0.000     0.000
  1102   8 O        2.261     5.984    -0.001
  1103   6 C        2.884     0.000     0.000
  1104   6 C        2.532     1.310    -0.000
  1105   6 C        2.872     0.070    -0.000
  1106   1 H        1.887    15.266    -0.026
  1107   1 H        1.911    11.732    -0.020
  1108   1 H        1.957    15.767    -0.026
  1109   1 H        2.017     4.906    -0.008
  1110   1 H        2.056     2.099    -0.004
  1111   1 H        2.079     1.027    -0.002
  1112   1 H        2.010     9.968    -0.017
  1113   1 H        2.147     0.000     0.000
  1114   1 H        2.002     4.521    -0.008
  1115   1 H        1.905    17.619    -0.030
  1116   1 H        1.979     9.991    -0.017
  1117   1 H        2.101     3.019    -0.005
  1118  15 P        2.783     8.487    -0.002
  1119   8 O        2.076    25.698    -0.003
  1120   8 O        2.084    26.182    -0.003
  1121   8 O        2.393     0.000    -0.000
  1122   6 C        2.446     0.534    -0.000
  1123   6 C        2.530     0.197    -0.000
  1124   8 O        2.378     8.239    -0.001
  1125   6 C        2.503     0.321    -0.000
  1126   8 O        2.050    28.880    -0.003
  1127   6 C        2.499     1.250    -0.000
  1128   6 C        2.645     0.320    -0.000
  1129   7 N        2.639     0.309    -0.000
  1130   6 C        2.634     4.802    -0.000
  1131   8 O        2.145    16.562    -0.002
  1132   7 N        2.509     2.393    -0.000
  1133   6 C        2.771     3.732    -0.000
  1134   7 N        2.341     3.393    -0.000
  1135   6 C        2.711     4.488    -0.000
  1136   6 C        2.698     2.158    -0.000
  1137   1 H        1.877    15.085    -0.025
  1138   1 H        1.900    11.555    -0.019
  1139   1 H        1.924    16.492    -0.028
  1140   1 H        1.973     6.312    -0.011
  1141   1 H        1.939    16.727    -0.028
  1142   1 H        1.907    17.436    -0.029
  1143   1 H        1.953    12.351    -0.021
  1144   1 H        2.010     2.616    -0.004
  1145   1 H        2.053     6.692    -0.011
  1146   1 H        2.054     7.317    -0.012
  1147   1 H        2.054     2.784    -0.005

 total SASA / Å² :     6318.413

     #   Z          covCN         q      C6AA      α(0)
     1   8 O        1.654    -0.494    22.755     6.439
     2   6 C        3.675     0.071    19.617     6.346
     3   6 C        3.783     0.093    19.056     6.218
     4   8 O        1.700    -0.302    19.024     5.889
     5   6 C        3.976     0.125    18.482     6.108
     6   8 O        1.657    -0.298    18.983     5.882
     7   6 C        3.744     0.102    18.974     6.214
     8   8 O        1.656    -0.457    21.993     6.331
     9   6 C        3.723     0.149    18.283     6.106
    10   7 N        2.842    -0.037    21.946     6.958
    11   6 C        3.142     0.107    25.411     8.249
[...]
                           883 N    0.105
   882   6 C    3.971 --   883 N    1.376   881 N    1.335   884 C    1.161
   883   7 N    3.455 --   882 C    1.376   894 H    0.921   893 H    0.869
                           881 N    0.105
   884   6 C    3.975 --   885 C    1.636   882 C    1.161   895 H    0.963
   885   6 C    3.964 --   884 C    1.636   878 N    1.216   896 H    0.939
   886   1 H    0.991 --   870 C    0.950
   887   1 H    0.997 --   870 C    0.964
   888   1 H    0.990 --   871 C    0.952
   889   1 H    1.000 --   873 C    0.955
   890   1 H    0.989 --   875 C    0.912
   891   1 H    0.872 --   876 O    0.825
   892   1 H    0.990 --   877 C    0.945
   893   1 H    0.932 --   883 N    0.869
   894   1 H    0.944 --   883 N    0.921
   895   1 H    0.997 --   884 C    0.963
   896   1 H    0.994 --   885 C    0.939
   897  15 P    5.807 --   898 O    1.763   899 O    1.747   900 O    1.142
                           874 O    1.101
   898   8 O    1.985 --   897 P    1.763
   899   8 O    1.968 --   897 P    1.747
   900   8 O    2.282 --   897 P    1.142   901 C    0.929
   901   6 C    3.919 --   902 C    0.995   918 H    0.960   917 H    0.936
                           900 O    0.929
   902   6 C    3.904 --   901 C    0.995   919 H    0.950   904 C    0.949
                           903 O    0.923
   903   8 O    2.053 --   908 C    0.982   902 C    0.923
   904   6 C    3.943 --   905 O    1.103   902 C    0.949   920 H    0.943
                           906 C    0.892
   905   8 O    1.196 --   904 C    1.103
   906   6 C    3.879 --   907 O    1.030   921 H    0.959   908 C    0.938
                           904 C    0.892
   907   8 O    1.957 --   906 C    1.030   922 H    0.846
   908   6 C    3.905 --   903 O    0.982   909 N    0.950   923 H    0.938
                           906 C    0.938
   909   7 N    3.565 --   916 C    1.214   910 C    1.068   908 C    0.950
                           911 O    0.106
   910   6 C    3.948 --   911 O    1.514   912 N    1.261   909 N    1.068
   911   8 O    1.911 --   910 C    1.514   912 N    0.123   909 N    0.106
   912   7 N    3.041 --   913 C    1.342   910 C    1.261   911 O    0.123
                           914 N    0.108
   913   6 C    3.970 --   914 N    1.368   912 N    1.342   915 C    1.160
   914   7 N    3.441 --   913 C    1.368   925 H    0.927   924 H    0.882
                           912 N    0.108
   915   6 C    3.969 --   916 C    1.639   913 C    1.160   926 H    0.964
   916   6 C    3.969 --   915 C    1.639   909 N    1.214   927 H    0.951
   917   1 H    0.994 --   901 C    0.936
   918   1 H    0.991 --   901 C    0.960
   919   1 H    0.992 --   902 C    0.950
   920   1 H    0.982 --   904 C    0.943
   921   1 H    0.992 --   906 C    0.959
   922   1 H    0.864 --   907 O    0.846
   923   1 H    0.983 --   908 C    0.938
   924   1 H    0.924 --   914 N    0.882
   925   1 H    0.945 --   914 N    0.927
   926   1 H    0.997 --   915 C    0.964
   927   1 H    0.996 --   916 C    0.951
   928   8 O    2.200 --   929 C    1.183   955 H    0.664
   929   6 C    3.762 --   928 O    1.183   930 C    0.908   945 H    0.891
                           944 H    0.674
   930   6 C    3.841 --   931 O    0.997   932 C    0.942   929 C    0.908
                           946 H    0.807
   931   8 O    2.331 --   935 C    1.018   930 C    0.997
   932   6 C    3.759 --   934 C    0.945   930 C    0.942   933 O    0.924
                           947 H    0.824
   933   8 O    2.222 --   956 P    1.046   932 C    0.924
   934   6 C    3.871 --   935 C    0.953   932 C    0.945   949 H    0.924
                           948 H    0.891
   935   6 C    3.877 --   931 O    1.018   936 N    0.997   934 C    0.953
                           950 H    0.769
   936   7 N    3.551 --   943 C    1.212   937 C    1.034   935 C    0.997
   937   6 C    3.919 --   938 O    1.577   939 N    1.226   936 N    1.034
   938   8 O    1.980 --   937 C    1.577   939 N    0.149
   939   7 N    3.159 --   940 C    1.295   937 C    1.226   938 O    0.149
   940   6 C    3.908 --   941 N    1.422   939 N    1.295   942 C    1.077
   941   7 N    3.418 --   940 C    1.422   951 H    0.793   952 H    0.766
                           972 N    0.111
   942   6 C    3.628 --   943 C    1.540   940 C    1.077   953 H    0.758
   943   6 C    3.764 --   942 C    1.540   936 N    1.212   954 H    0.792
   944   1 H    0.766 --   929 C    0.674
   945   1 H    0.935 --   929 C    0.891
   946   1 H    0.913 --   930 C    0.807
   947   1 H    0.883 --   932 C    0.824
   948   1 H    0.940 --   934 C    0.891
   949   1 H    0.976 --   934 C    0.924
   950   1 H    0.879 --   935 C    0.769
   951   1 H    0.874 --   941 N    0.793
   952   1 H    0.806 --   941 N    0.766
   953   1 H    0.800 --   942 C    0.758
   954   1 H    0.839 --   943 C    0.792
   955   1 H    0.691 --   928 O    0.664
   956  15 P    5.201 --   958 O    1.581   957 O    1.465   959 O    1.053
                           933 O    1.046
   957   8 O    1.714 --   956 P    1.465
   958   8 O    1.937 --   956 P    1.581
   959   8 O    2.256 --   956 P    1.053   960 C    1.001
   960   6 C    3.904 --   959 O    1.001   961 C    0.958   978 H    0.949
                           977 H    0.942
   961   6 C    3.907 --   962 O    0.995   960 C    0.958   963 C    0.956
                           979 H    0.907
   962   8 O    2.118 --   961 C    0.995   966 C    0.980
   963   6 C    3.792 --   965 C    0.971   961 C    0.956   980 H    0.924
                           964 O    0.848
   964   8 O    2.217 --   988 P    1.157   963 C    0.848
   965   6 C    3.838 --   963 C    0.971   966 C    0.960   982 H    0.912
                           981 H    0.867
   966   6 C    3.864 --   967 N    0.984   962 O    0.980   965 C    0.960
                           983 H    0.854
   967   7 N    3.603 --   976 C    1.207   968 C    1.158   966 C    0.984
   968   6 C    3.764 --   969 N    1.534   967 N    1.158   984 H    0.867
   969   7 N    3.003 --   968 C    1.534   970 C    1.213
   970   6 C    3.828 --   969 N    1.213   976 C    1.186   971 C    1.159
   971   6 C    3.911 --   972 N    1.445   973 N    1.171   970 C    1.159
   972   7 N    3.353 --   971 C    1.445   985 H    0.776   986 H    0.695
                           941 N    0.111
   973   7 N    3.006 --   974 C    1.444   971 C    1.171
   974   6 C    3.936 --   973 N    1.444   975 N    1.402   987 H    0.945
   975   7 N    2.995 --   974 C    1.402   976 C    1.253
   976   6 C    3.862 --   975 N    1.253   967 N    1.207   970 C    1.186
   977   1 H    0.967 --   960 C    0.942
   978   1 H    0.977 --   960 C    0.949
   979   1 H    0.946 --   961 C    0.907
   980   1 H    0.961 --   963 C    0.924
   981   1 H    0.891 --   965 C    0.867
   982   1 H    0.963 --   965 C    0.912
   983   1 H    0.891 --   966 C    0.854
   984   1 H    0.909 --   968 C    0.867
   985   1 H    0.815 --   972 N    0.776
   986   1 H    0.731 --   972 N    0.695
   987   1 H    0.989 --   974 C    0.945
   988  15 P    5.549 --   990 O    1.645   989 O    1.567   964 O    1.157
                           991 O    1.106
   989   8 O    1.717 --   988 P    1.567
   990   8 O    1.824 --   988 P    1.645
   991   8 O    2.285 --   988 P    1.106   992 C    0.962
   992   6 C    3.942 --   993 C    0.986  1011 H    0.972   991 O    0.962
                          1010 H    0.959
   993   6 C    3.969 --   992 C    0.986   994 O    0.978   995 C    0.970
                          1012 H    0.960
   994   8 O    2.063 --   993 C    0.978   998 C    0.952
   995   6 C    3.848 --   997 C    0.978   993 C    0.970  1013 H    0.938
                           996 O    0.871
   996   8 O    2.221 --  1021 P    1.136   995 C    0.871
   997   6 C    3.957 --   995 C    0.978  1015 H    0.970   998 C    0.961
                          1014 H    0.937
   998   6 C    3.923 --   999 N    0.988   997 C    0.961  1016 H    0.954
                           994 O    0.952
   999   7 N    3.589 --  1009 C    1.177  1000 C    1.159   998 C    0.988
  1000   6 C    3.815 --  1001 N    1.492   999 N    1.159  1017 H    0.914
  1001   7 N    3.008 --  1000 C    1.492  1002 C    1.245
  1002   6 C    3.817 --  1001 N    1.245  1009 C    1.169  1003 C    1.079
  1003   6 C    3.884 --  1004 O    1.649  1002 C    1.079  1005 N    1.057
  1004   8 O    2.160 --  1003 C    1.649  1005 N    0.124
  1005   7 N    3.434 --  1006 C    1.215  1003 C    1.057  1018 H    0.797
                          1004 O    0.124
  1006   6 C    3.904 --  1007 N    1.325  1008 N    1.284  1005 N    1.215
  1007   7 N    3.424 --  1006 C    1.325  1020 H    0.964  1019 H    0.872
  1008   7 N    2.926 --  1009 C    1.289  1006 C    1.284
  1009   6 C    3.854 --  1008 N    1.289   999 N    1.177  1002 C    1.169
  1010   1 H    0.990 --   992 C    0.959
  1011   1 H    0.996 --   992 C    0.972
  1012   1 H    0.997 --   993 C    0.960
  1013   1 H    0.979 --   995 C    0.938
  1014   1 H    0.971 --   997 C    0.937
  1015   1 H    0.999 --   997 C    0.970
  1016   1 H    0.996 --   998 C    0.954
  1017   1 H    0.959 --  1000 C    0.914
  1018   1 H    0.875 --  1005 N    0.797
  1019   1 H    0.923 --  1007 N    0.872
  1020   1 H    0.981 --  1007 N    0.964
  1021  15 P    5.681 --  1023 O    1.722  1022 O    1.639   996 O    1.136
                          1024 O    1.118
  1022   8 O    1.808 --  1021 P    1.639
  1023   8 O    1.927 --  1021 P    1.722
  1024   8 O    2.296 --  1021 P    1.118  1025 C    0.965
  1025   6 C    3.956 --  1026 C    0.985  1042 H    0.972  1041 H    0.971
                          1024 O    0.965
  1026   6 C    3.976 --  1027 O    0.985  1025 C    0.985  1028 C    0.967
                          1043 H    0.961
  1027   8 O    2.066 --  1026 C    0.985  1031 C    0.942
  1028   6 C    3.861 --  1030 C    0.970  1026 C    0.967  1044 H    0.960
                          1029 O    0.876
  1029   8 O    2.236 --  1053 P    1.142  1028 C    0.876
  1030   6 C    3.907 --  1028 C    0.970  1045 H    0.951  1031 C    0.928
                          1046 H    0.927
  1031   6 C    3.912 --  1032 N    0.994  1047 H    0.945  1027 O    0.942
                          1030 C    0.928
  1032   7 N    3.615 --  1040 C    1.288  1033 C    1.009  1031 C    0.994
  1033   6 C    3.882 --  1034 O    1.617  1035 N    1.192  1032 N    1.009
  1034   8 O    1.979 --  1033 C    1.617  1035 N    0.167
  1035   7 N    3.457 --  1033 C    1.192  1036 C    1.077  1048 H    0.787
                          1034 O    0.167  1037 O    0.129
  1036   6 C    3.907 --  1037 O    1.757  1035 N    1.077  1038 C    0.998
  1037   8 O    2.128 --  1036 C    1.757  1035 N    0.129
  1038   6 C    3.808 --  1040 C    1.320  1039 C    1.262  1036 C    0.998
  1039   6 C    3.688 --  1038 C    1.262  1049 H    0.927  1051 H    0.713
                          1050 H    0.529
  1040   6 C    3.788 --  1038 C    1.320  1032 N    1.288  1052 H    0.932
  1041   1 H    1.000 --  1025 C    0.971
  1042   1 H    0.999 --  1025 C    0.972
  1043   1 H    0.999 --  1026 C    0.961
  1044   1 H    0.996 --  1028 C    0.960
  1045   1 H    0.978 --  1030 C    0.951
  1046   1 H    0.982 --  1030 C    0.927
  1047   1 H    0.993 --  1031 C    0.945
  1048   1 H    0.850 --  1035 N    0.787
  1049   1 H    0.959 --  1039 C    0.927
  1050   1 H    0.684 --  1039 C    0.529
  1051   1 H    0.780 --  1039 C    0.713
  1052   1 H    0.974 --  1040 C    0.932
  1053  15 P    5.787 --  1055 O    1.733  1054 O    1.693  1029 O    1.142
                          1056 O    1.141
  1054   8 O    1.897 --  1053 P    1.693
  1055   8 O    1.957 --  1053 P    1.733
  1056   8 O    2.305 --  1053 P    1.141  1057 C    0.942
  1057   6 C    3.932 --  1058 C    0.988  1076 H    0.969  1075 H    0.961
                          1056 O    0.942
  1058   6 C    3.976 --  1057 C    0.988  1059 O    0.984  1060 C    0.970
                          1077 H    0.959
  1059   8 O    2.060 --  1058 C    0.984  1063 C    0.944
  1060   6 C    3.870 --  1062 C    0.974  1058 C    0.970  1078 H    0.961
                          1061 O    0.880
  1061   8 O    2.239 --  1086 P    1.144  1060 C    0.880
  1062   6 C    3.964 --  1060 C    0.974  1080 H    0.964  1063 C    0.961
                          1079 H    0.956
  1063   6 C    3.913 --  1064 N    0.990  1062 C    0.961  1081 H    0.949
                          1059 O    0.944
  1064   7 N    3.588 --  1065 C    1.208  1074 C    1.121  1063 C    0.990
  1065   6 C    3.848 --  1066 N    1.479  1064 N    1.208  1082 H    0.951
  1066   7 N    3.015 --  1065 C    1.479  1067 C    1.263
  1067   6 C    3.845 --  1066 N    1.263  1074 C    1.183  1068 C    1.069
  1068   6 C    3.927 --  1069 O    1.687  1070 N    1.078  1067 C    1.069
  1069   8 O    2.166 --  1068 C    1.687  1070 N    0.126
  1070   7 N    3.444 --  1071 C    1.218  1068 C    1.078  1083 H    0.770
                          1069 O    0.126  1072 N    0.103
  1071   6 C    3.932 --  1072 N    1.385  1073 N    1.248  1070 N    1.218
  1072   7 N    3.445 --  1071 C    1.385  1085 H    0.950  1084 H    0.823
                          1070 N    0.103
  1073   7 N    2.991 --  1074 C    1.346  1071 C    1.248
  1074   6 C    3.862 --  1073 N    1.346  1067 C    1.183  1064 N    1.121
  1075   1 H    0.994 --  1057 C    0.961
  1076   1 H    0.998 --  1057 C    0.969
  1077   1 H    0.998 --  1058 C    0.959
  1078   1 H    0.999 --  1060 C    0.961
  1079   1 H    0.989 --  1062 C    0.956
  1080   1 H    0.995 --  1062 C    0.964
  1081   1 H    0.993 --  1063 C    0.949
  1082   1 H    0.993 --  1065 C    0.951
  1083   1 H    0.854 --  1070 N    0.770
  1084   1 H    0.891 --  1072 N    0.823
  1085   1 H    0.967 --  1072 N    0.950
  1086  15 P    5.801 --  1088 O    1.714  1087 O    1.710  1089 O    1.157
                          1061 O    1.144
  1087   8 O    1.918 --  1086 P    1.710
  1088   8 O    1.938 --  1086 P    1.714
  1089   8 O    2.305 --  1086 P    1.157  1090 C    0.927
  1090   6 C    3.917 --  1091 C    0.989  1107 H    0.970  1106 H    0.958
                          1089 O    0.927
  1091   6 C    3.974 --  1090 C    0.989  1092 O    0.981  1093 C    0.972
                          1108 H    0.957
  1092   8 O    2.054 --  1091 C    0.981  1096 C    0.943
  1093   6 C    3.882 --  1095 C    0.976  1091 C    0.972  1109 H    0.961
                          1094 O    0.890
  1094   8 O    2.239 --  1118 P    1.134  1093 C    0.890
  1095   6 C    3.959 --  1093 C    0.976  1111 H    0.964  1110 H    0.962
                          1096 C    0.961
  1096   6 C    3.906 --  1097 N    0.984  1095 C    0.961  1092 O    0.943
                          1112 H    0.941
  1097   7 N    3.539 --  1105 C    1.211  1098 C    1.035  1096 C    0.984
  1098   6 C    3.913 --  1099 O    1.601  1100 N    1.205  1097 N    1.035
  1099   8 O    1.981 --  1098 C    1.601  1100 N    0.162
  1100   7 N    3.484 --  1098 C    1.205  1101 C    1.104  1113 H    0.778
                          1099 O    0.162  1102 O    0.143
  1101   6 C    3.957 --  1102 O    1.715  1100 N    1.104  1103 C    1.039
  1102   8 O    2.111 --  1101 C    1.715  1100 N    0.143
  1103   6 C    3.870 --  1105 C    1.486  1104 C    1.089  1101 C    1.039
  1104   6 C    3.874 --  1103 C    1.089  1114 H    0.933  1116 H    0.876
                          1115 H    0.827
  1105   6 C    3.873 --  1103 C    1.486  1097 N    1.211  1117 H    0.958
  1106   1 H    0.992 --  1090 C    0.958
  1107   1 H    0.999 --  1090 C    0.970
  1108   1 H    0.997 --  1091 C    0.957
  1109   1 H    0.999 --  1093 C    0.961
  1110   1 H    0.992 --  1095 C    0.962
  1111   1 H    0.994 --  1095 C    0.964
  1112   1 H    0.985 --  1096 C    0.941
  1113   1 H    0.833 --  1100 N    0.778
  1114   1 H    0.988 --  1104 C    0.933
  1115   1 H    0.910 --  1104 C    0.827
  1116   1 H    0.915 --  1104 C    0.876
  1117   1 H    0.999 --  1105 C    0.958
  1118  15 P    5.803 --  1120 O    1.722  1119 O    1.719  1121 O    1.156
                          1094 O    1.134
  1119   8 O    1.930 --  1118 P    1.719
  1120   8 O    1.943 --  1118 P    1.722
  1121   8 O    2.304 --  1118 P    1.156  1122 C    0.927
  1122   6 C    3.916 --  1123 C    0.989  1138 H    0.969  1137 H    0.956
                          1121 O    0.927
  1123   6 C    3.946 --  1122 C    0.989  1124 O    0.971  1139 H    0.960
                          1125 C    0.947
  1124   8 O    2.060 --  1123 C    0.971  1128 C    0.951
  1125   6 C    3.911 --  1126 O    1.081  1123 C    0.947  1140 H    0.939
                          1127 C    0.899
  1126   8 O    1.198 --  1125 C    1.081
  1127   6 C    3.874 --  1142 H    0.974  1141 H    0.969  1128 C    0.960
                          1125 C    0.899
  1128   6 C    3.906 --  1129 N    0.988  1127 C    0.960  1124 O    0.951
                          1143 H    0.933
  1129   7 N    3.523 --  1136 C    1.213  1130 C    1.010  1128 C    0.988
  1130   6 C    3.901 --  1131 O    1.544  1132 N    1.257  1129 N    1.010
  1131   8 O    1.910 --  1130 C    1.544  1132 N    0.139
  1132   7 N    2.998 --  1133 C    1.311  1130 C    1.257  1131 O    0.139
                          1134 N    0.102
  1133   6 C    3.961 --  1134 N    1.434  1132 N    1.311  1135 C    1.126
  1134   7 N    3.350 --  1133 C    1.434  1145 H    0.870  1144 H    0.776
                          1132 N    0.102
  1135   6 C    3.852 --  1136 C    1.610  1133 C    1.126  1146 H    0.950
  1136   6 C    3.934 --  1135 C    1.610  1129 N    1.213  1147 H    0.956
  1137   1 H    0.991 --  1122 C    0.956
  1138   1 H    1.000 --  1122 C    0.969
  1139   1 H    0.997 --  1123 C    0.960
  1140   1 H    0.982 --  1125 C    0.939
  1141   1 H    0.991 --  1127 C    0.969
  1142   1 H    0.995 --  1127 C    0.974
  1143   1 H    0.977 --  1128 C    0.933
  1144   1 H    0.846 --  1134 N    0.776
  1145   1 H    0.906 --  1134 N    0.870
  1146   1 H    0.988 --  1135 C    0.950
  1147   1 H    0.995 --  1136 C    0.956
 ---------------------------------------------------------------------------


molecular dipole:
                 x           y           z       tot (Debye)
 q only:     -732.089     106.916     353.694
   full:     -708.296     129.430     331.660    2014.940
molecular quadrupole (traceless):
                xx          xy          yy          xz          yz          zz
 q only:     3524.227    4938.919   -4740.358   -3470.501   -2043.476    1216.131
  q+dip:     3101.556    4373.851   -4007.324   -2793.008   -1842.064     905.767
   full:     3135.435    4332.923   -4018.295   -2816.608   -1825.754     882.860


           -------------------------------------------------
          | TOTAL ENERGY            -2408.387064543024 Eh   |
          | GRADIENT NORM               0.902036951959 Eh/α |
          | HOMO-LUMO GAP               0.002051266047 eV   |
           -------------------------------------------------
########################################################################
[WARNING] Runtime exception occurred
-2- restart_readRestart: Dimension missmatch in restart file.
-1- restart_readRestart: Number of electron missmatch in restart file.
########################################################################

------------------------------------------------------------------------
 * finished run on 2023/04/11 at 13:06:55.865     
------------------------------------------------------------------------
 total:
 * wall-time:     0 d,  0 h,  3 min, 37.594 sec
 *  cpu-time:     0 d,  0 h, 35 min, 20.317 sec
 * ratio c/w:     9.744 speedup
 SCF:
 * wall-time:     0 d,  0 h,  3 min, 33.799 sec
 *  cpu-time:     0 d,  0 h, 35 min,  8.669 sec
 * ratio c/w:     9.863 speedup

