      -----------------------------------------------------------      
     |                   =====================                   |     
     |                           x T B                           |     
     |                   =====================                   |     
     |                         S. Grimme                         |     
     |          Mulliken Center for Theoretical Chemistry        |     
     |                    University of Bonn                     |     
      -----------------------------------------------------------      

   * xtb version 6.5.1 (579679a) compiled by 'ehlert@majestix' on 2022-07-11

   xtb is free software: you can redistribute it and/or modify it under
   the terms of the GNU Lesser General Public License as published by
   the Free Software Foundation, either version 3 of the License, or
   (at your option) any later version.
   
   xtb is distributed in the hope that it will be useful,
   but WITHOUT ANY WARRANTY; without even the implied warranty of
   MERCHANTABILITY or FITNESS FOR A PARTICULAR PURPOSE.  See the
   GNU Lesser General Public License for more details.
   
   Cite this work as:
   * C. Bannwarth, E. Caldeweyher, S. Ehlert, A. Hansen, P. Pracht,
     J. Seibert, S. Spicher, S. Grimme, WIREs Comput. Mol. Sci., 2020, 11,
     e01493. DOI: 10.1002/wcms.1493
   
   for GFN2-xTB:
   * C. Bannwarth, S. Ehlert and S. Grimme., J. Chem. Theory Comput., 2019,
     15, 1652-1671. DOI: 10.1021/acs.jctc.8b01176
   for GFN1-xTB:
   * S. Grimme, C. Bannwarth, P. Shushkov, J. Chem. Theory Comput., 2017,
     13, 1989-2009. DOI: 10.1021/acs.jctc.7b00118
   for GFN0-xTB:
   * P. Pracht, E. Caldeweyher, S. Ehlert, S. Grimme, ChemRxiv, 2019, preprint.
     DOI: 10.26434/chemrxiv.8326202.v1
   for GFN-FF:
   * S. Spicher and S. Grimme, Angew. Chem. Int. Ed., 2020, 59, 15665-15673.
     DOI: 10.1002/anie.202004239
   
   for ALPB and GBSA implicit solvation:
   * S. Ehlert, M. Stahn, S. Spicher, S. Grimme, J. Chem. Theory Comput.,
     2021, 17, 4250-4261. DOI: 10.1021/acs.jctc.1c00471
   
   for DFT-D4:
   * E. Caldeweyher, C. Bannwarth and S. Grimme, J. Chem. Phys., 2017,
     147, 034112. DOI: 10.1063/1.4993215
   * E. Caldeweyher, S. Ehlert, A. Hansen, H. Neugebauer, S. Spicher,
     C. Bannwarth and S. Grimme, J. Chem. Phys., 2019, 150, 154122.
     DOI: 10.1063/1.5090222
   * E. Caldeweyher, J.-M. Mewes, S. Ehlert and S. Grimme, Phys. Chem. Chem. Phys.
     2020, 22, 8499-8512. DOI: 10.1039/D0CP00502A
   
   for sTDA-xTB:
   * S. Grimme and C. Bannwarth, J. Chem. Phys., 2016, 145, 054103.
     DOI: 10.1063/1.4959605
   
   in the mass-spec context:
   * V. Asgeirsson, C. Bauer and S. Grimme, Chem. Sci., 2017, 8, 4879.
     DOI: 10.1039/c7sc00601b
   * J. Koopman and S. Grimme, ACS Omega 2019, 4, 12, 15120-15133.
     DOI: 10.1021/acsomega.9b02011
   
   for metadynamics refer to:
   * S. Grimme, J. Chem. Theory Comput., 2019, 155, 2847-2862
     DOI: 10.1021/acs.jctc.9b00143
   
   for SPH calculations refer to:
   * S. Spicher and S. Grimme, J. Chem. Theory Comput., 2021, 17, 1701-1714
     DOI: 10.1021/acs.jctc.0c01306
   
   with help from (in alphabetical order)
   P. Atkinson, C. Bannwarth, F. Bohle, G. Brandenburg, E. Caldeweyher
   M. Checinski, S. Dohm, S. Ehlert, S. Ehrlich, I. Gerasimov, C. Hölzer
   A. Katbashev, J. Koopman, C. Lavigne, S. Lehtola, F. März, M. Müller,
   F. Musil, H. Neugebauer, J. Pisarek, C. Plett, P. Pracht, F. Pultar,
   J. Seibert, P. Shushkov, S. Spicher, M. Stahn, M. Steiner, T. Strunk,
   J. Stückrath, T. Rose, and J. Unsleber
   
 * started run on 2023/03/20 at 21:04:21.006     

           -------------------------------------------------
          |                Calculation Setup                |
           -------------------------------------------------

          program call               : /N/u/schandy/BigRed3/bin/xtb-6.5.1/bin/xtb 2M3P_min.xyz --gbsa water
          hostname                   : nid00197
          coordinate file            : 2M3P_min.xyz
          omp threads                :                    10

   ID    Z sym.   atoms
    1    8 O      1, 4, 6, 11, 30-32, 35, 37, 45, 63-65, 68, 70, 75, 93-95,
                  98, 100, 105, 108, 125-127, 130, 132, 137, 155, 158, 160,
                  162, 164, 165, 175-177, 180, 182, 187, 205-207, 210, 212,
                  237-239, 242, 244, 249, 267-269, 272, 274, 282, 300-302,
                  305, 307, 312, 330, 333, 335, 343, 362-364, 367, 369, 374,
                  392-394, 397, 399, 407, 425-427, 430, 432, 437, 440,
                  457-459, 462, 464, 472, 490-492, 495, 497, 505, 523-525,
                  528, 530, 538, 556-558, 561, 563, 588-590, 593, 595, 603,
                  609, 622-624, 627, 629, 634, 652-654, 657, 659, 667
    2    6 C      2, 3, 5, 7, 8, 10, 13, 15, 16, 33, 34, 36, 38, 39, 41, 43,
                  44, 47, 50, 66, 67, 69, 71, 72, 74, 77, 79, 80, 96, 97, 99,
                  101, 102, 104, 107, 109-111, 128, 129, 131, 133, 134, 136,
                  139, 141, 142, 154, 156, 157, 159, 161, 178, 179, 181, 183,
                  184, 186, 189, 191, 192, 208, 209, 211, 213, 214, 216, 218,
                  219, 222, 224, 240, 241, 243, 245, 246, 248, 251, 253, 254,
                  270, 271, 273, 275, 276, 278, 280, 281, 284, 287, 303, 304,
                  306, 308, 309, 311, 314, 316, 317, 331, 332, 334, 336, 337,
                  339, 341, 342, 345, 348, 365, 366, 368, 370, 371, 373, 376,
                  378, 379, 395, 396, 398, 400, 401, 403, 405, 406, 409, 412,
                  428, 429, 431, 433, 434, 436, 439, 441-443, 460, 461, 463,
                  465, 466, 468, 470, 471, 474, 477, 493, 494, 496, 498, 499,
                  501, 503, 504, 507, 510, 526, 527, 529, 531, 532, 534, 536,
                  537, 540, 543, 559, 560, 562, 564, 565, 567, 569, 570, 573,
                  575, 591, 592, 594, 596, 597, 599, 601, 602, 605, 608, 625,
                  626, 628, 630, 631, 633, 636, 638, 639, 655, 656, 658, 660,
                  661, 663, 665, 666, 669, 672
    3    7 N      9, 12, 14, 40, 42, 46, 48, 49, 73, 76, 78, 103, 106, 135,
                  138, 140, 185, 188, 190, 215, 217, 220, 221, 223, 247, 250,
                  252, 277, 279, 283, 285, 286, 310, 313, 315, 338, 340, 344,
                  346, 347, 372, 375, 377, 402, 404, 408, 410, 411, 435, 438,
                  467, 469, 473, 475, 476, 500, 502, 506, 508, 509, 533, 535,
                  539, 541, 542, 566, 568, 571, 572, 574, 598, 600, 604, 606,
                  607, 632, 635, 637, 662, 664, 668, 670, 671
    4    1 H      17-28, 51-61, 81-91, 112-123, 143-153, 166-173, 193-203,
                  225-235, 255-265, 288-298, 318-329, 349-360, 380-390,
                  413-423, 444-455, 478-488, 511-521, 544-554, 576-586,
                  610-620, 640-650, 673-684
    5   15 P      29, 62, 92, 124, 163, 174, 204, 236, 266, 299, 361, 391,
                  424, 456, 489, 522, 555, 587, 621, 651

molecular fragmentation (1/2 indicates fragments):
111111111111111111111111111111111111111111111111111111111111111111111111
111111111111111111111111111111111111111111111111111111111111111111111111
111111111111111111111111111111111111111111111111111111111111111111111111
111111111111111111111111111111111111111111111111111111111111111111111111
111111111111111111111111111111111111111112222222222222222222222222222222
222222222222222222222222222222222222222222222222222222222222222222222222
222222222222222222222222222222222222222222222222222222222222222222222222
222222222222222222222222222222222222222222222222222222222222222222222222
222222222222222222222222222222222222222222222222222222222222222222222222
222222222222222222222222222222222222
# atoms in fragment 1/2:   329   355
 fragment masses (1/2) :     3134.96     3444.16
CMA distance (Bohr)    :   6.282
constraining FC (au)   :  0.0500

           -------------------------------------------------
          |                 G F N 2 - x T B                 |
           -------------------------------------------------

        Reference                      10.1021/acs.jctc.8b01176
      * Hamiltonian:
        H0-scaling (s, p, d)           1.850000    2.230000    2.230000
        zeta-weighting                 0.500000
      * Dispersion:
        s8                             2.700000
        a1                             0.520000
        a2                             5.000000
        s9                             5.000000
      * Repulsion:
        kExp                           1.500000    1.000000
        rExp                           1.000000
      * Coulomb:
        alpha                          2.000000
        third order                    shell-resolved
        anisotropic                    true
        a3                             3.000000
        a5                             4.000000
        cn-shift                       1.200000
        cn-exp                         4.000000
        max-rad                        5.000000

      * Solvation model:               GBSA
        Solvent                        water
        Parameter file                 internal GFN2-xTB/GBSA
        Dielectric constant                8.0200E+01
        Reference state                gsolv [1 M gas/solution]
        Free energy shift                  1.8574E-03 Eh       1.1656E+00 kcal/mol
        Temperature                        2.9815E+02 K
        Density                            1.0000E+00 kg/L
        Solvent mass                       1.8000E+01 g/mol
        Interaction kernel             Still
        Born radius scaling (c1)           1.5524E+00
        Born radii integrator          GBOBC
        Born offset                        2.4628E-02 a0       4.6540E-02 AA
        H-bond correction              true
        Ion screening                  false
        Surface tension                    1.0000E-05 Eh       1.5569E+01 dyn/cm
        Grid points                               230 per atom
q/qsh data taken from xtbrestart
CAMM data taken from xtbrestart

          ...................................................
          :                      SETUP                      :
          :.................................................:
          :  # basis functions                2121          :
          :  # atomic orbitals                2101          :
          :  # shells                         1143          :
          :  # electrons                      2362          :
          :  max. iterations                   250          :
          :  Hamiltonian                  GFN2-xTB          :
          :  restarted?                       true          :
          :  GBSA solvation                   true          :
          :  PC potential                    false          :
          :  electronic temp.          300.0000000     K    :
          :  accuracy                    1.0000000          :
          :  -> integral cutoff          0.2500000E+02      :
          :  -> integral neglect         0.1000000E-07      :
          :  -> SCF convergence          0.1000000E-05 Eh   :
          :  -> wf. convergence          0.1000000E-03 e    :
          :  Broyden damping             0.4000000          :
          ...................................................

 iter      E             dE          RMSdq      gap      omega  full diag
   1  -1400.5894557 -0.140059E+04  0.145E+00    0.00       0.0  T
   2  -1398.9003422  0.168911E+01  0.178E+00    0.02       1.0  T
   3  -1399.4172841 -0.516942E+00  0.163E+00    0.01       1.0  T
   4  -1400.6264392 -0.120916E+01  0.136E+00    0.01       1.0  T
   5  -1400.7191028 -0.926636E-01  0.124E+00    0.01       1.0  T
   6  -1401.8041618 -0.108506E+01  0.988E-01    0.00       1.0  T
   7  -1401.7610870  0.430748E-01  0.933E-01    0.02       1.0  T
   8  -1401.4650637  0.296023E+00  0.946E-01    0.00       1.0  T
   9  -1401.6572025 -0.192139E+00  0.876E-01    0.00       1.0  T
  10  -1402.1161472 -0.458945E+00  0.719E-01    0.01       1.0  T
  11  -1402.3924109 -0.276264E+00  0.588E-01    0.00       1.0  T
  12  -1402.3995663 -0.715535E-02  0.571E-01    0.01       1.0  T
  13  -1402.3846934  0.148729E-01  0.545E-01    0.00       1.0  T
  14  -1402.4828214 -0.981280E-01  0.491E-01    0.00       1.0  T
  15  -1402.4828661 -0.446805E-04  0.468E-01    0.00       1.0  T
  16  -1402.5498861 -0.670200E-01  0.425E-01    0.01       1.0  T
  17  -1402.4638946  0.859915E-01  0.470E-01    0.00       1.0  T
  18  -1402.5476447 -0.837501E-01  0.405E-01    0.00       1.0  T
  19  -1402.5516942 -0.404950E-02  0.402E-01    0.00       1.0  T
  20  -1402.6800360 -0.128342E+00  0.279E-01    0.00       1.0  T
  21  -1402.6667020  0.133340E-01  0.320E-01    0.00       1.0  T
  22  -1402.7001597 -0.334576E-01  0.251E-01    0.00       1.0  T
  23  -1402.7086532 -0.849356E-02  0.235E-01    0.00       1.0  T
  24  -1402.7040284  0.462486E-02  0.252E-01    0.01       1.0  T
  25  -1402.7357233 -0.316949E-01  0.167E-01    0.00       1.0  T
  26  -1402.6912168  0.445065E-01  0.276E-01    0.01       1.0  T
  27  -1402.6811400  0.100768E-01  0.297E-01    0.00       1.0  T
  28  -1402.7289243 -0.477843E-01  0.201E-01    0.00       1.0  T
  29  -1402.7541517 -0.252274E-01  0.124E-01    0.00       1.0  T
  30  -1402.7451707  0.898103E-02  0.143E-01    0.00       1.0  T
  31  -1402.7484888 -0.331809E-02  0.132E-01    0.00       1.0  T
  32  -1402.7500537 -0.156493E-02  0.135E-01    0.01       1.0  T
  33  -1402.7643815 -0.143278E-01  0.760E-02    0.00       1.0  T
  34  -1402.7653450 -0.963510E-03  0.664E-02    0.01       1.0  T
  35  -1402.7662829 -0.937868E-03  0.599E-02    0.00       1.0  T
  36  -1402.7678861 -0.160317E-02  0.451E-02    0.00       1.0  T
  37  -1402.7676971  0.188949E-03  0.477E-02    0.00       1.0  T
  38  -1402.7684578 -0.760714E-03  0.401E-02    0.00       1.0  T
  39  -1402.7688472 -0.389401E-03  0.345E-02    0.00       1.0  T
  40  -1402.7693668 -0.519587E-03  0.299E-02    0.00       1.0  T
  41  -1402.7695223 -0.155463E-03  0.269E-02    0.00       1.0  T
  42  -1402.7694878  0.344408E-04  0.274E-02    0.00       1.0  T
  43  -1402.7697171 -0.229223E-03  0.240E-02    0.00       1.0  T
  44  -1402.7700893 -0.372261E-03  0.150E-02    0.00       1.0  T
  45  -1402.7698669  0.222413E-03  0.202E-02    0.00       1.0  T
  46  -1402.7701305 -0.263603E-03  0.132E-02    0.00       1.0  T
  47  -1402.7701870 -0.564916E-04  0.112E-02    0.00       1.0  T
  48  -1402.7701616  0.254580E-04  0.124E-02    0.00       1.0  T
  49  -1402.7701711 -0.957004E-05  0.123E-02    0.00       1.0  T
  50  -1402.7702544 -0.832621E-04  0.845E-03    0.00       1.0  T
  51  -1402.7702502  0.418207E-05  0.838E-03    0.00       1.0  T
  52  -1402.7702948 -0.446115E-04  0.539E-03    0.00       1.0  T
  53  -1402.7702897  0.506723E-05  0.569E-03    0.00       1.0  T
  54  -1402.7703092 -0.194701E-04  0.391E-03    0.00       1.0  T
  55  -1402.7703121 -0.288767E-05  0.377E-03    0.00       1.0  T
  56  -1402.7703180 -0.588057E-05  0.272E-03    0.00       1.4  T
  57  -1402.7703206 -0.262540E-05  0.258E-03    0.00       1.5  T
  58  -1402.7703255 -0.492771E-05  0.160E-03    0.00       2.4  T
  59  -1402.7703216  0.390129E-05  0.236E-03    0.00       1.6  T
  60  -1402.7703240 -0.238889E-05  0.217E-03    0.00       1.8  T
  61  -1402.7703265 -0.247819E-05  0.138E-03    0.00       2.8  T
  62  -1402.7703275 -0.102344E-05  0.101E-03    0.00       3.8  T
  63  -1402.7703273  0.210881E-06  0.108E-03    0.00       3.5  T
  64  -1402.7703277 -0.401816E-06  0.891E-04    0.00       4.3  T
  65  -1402.7703281 -0.423492E-06  0.639E-04    0.00       6.0  T

   *** convergence criteria satisfied after 65 iterations ***

         #    Occupation            Energy/Eh            Energy/eV
      -------------------------------------------------------------
         1        2.0000           -0.7918599             -21.5476
       ...           ...                  ...                  ...
      1175        1.5944           -0.4349493             -11.8356
      1176        1.5910           -0.4349393             -11.8353
      1177        1.5031           -0.4347004             -11.8288
      1178        1.4991           -0.4346904             -11.8285
      1179        1.4851           -0.4346551             -11.8276
      1180        1.4653           -0.4346067             -11.8263
      1181        1.4051           -0.4344654             -11.8224 (HOMO)
      1182        1.3494           -0.4343419             -11.8190 (LUMO)
      1183        1.3104           -0.4342588             -11.8168
      1184        1.2489           -0.4341319             -11.8133
      1185        1.1969           -0.4340280             -11.8105
      1186        1.1315           -0.4339001             -11.8070
       ...           ...                  ...                  ...
      2101                          1.3413780              36.5008
      -------------------------------------------------------------
                  HL-Gap            0.0001234 Eh            0.0034 eV
             Fermi-level           -0.4336489 Eh          -11.8002 eV

 SCC (total)                   0 d,  0 h,  0 min, 39.876 sec
 SCC setup                      ...        0 min,  0.064 sec (  0.161%)
 Dispersion                     ...        0 min,  0.232 sec (  0.582%)
 classical contributions        ...        0 min,  0.003 sec (  0.008%)
 integral evaluation            ...        0 min,  0.515 sec (  1.291%)
 iterations                     ...        0 min, 37.173 sec ( 93.220%)
 molecular gradient             ...        0 min,  1.810 sec (  4.539%)
 printout                       ...        0 min,  0.079 sec (  0.197%)

         :::::::::::::::::::::::::::::::::::::::::::::::::::::
         ::                     SUMMARY                     ::
         :::::::::::::::::::::::::::::::::::::::::::::::::::::
         :: total energy           -1389.205778065623 Eh    ::
         :: total w/o Gsasa/hb     -1389.066727823608 Eh    ::
         :: gradient norm              0.833703499737 Eh/a0 ::
         :: HOMO-LUMO gap              0.003359150774 eV    ::
         ::.................................................::
         :: SCC energy             -1402.770328139850 Eh    ::
         :: -> isotropic ES            6.112551905555 Eh    ::
         :: -> anisotropic ES         -0.773576471572 Eh    ::
         :: -> anisotropic XC          0.227316777878 Eh    ::
         :: -> dispersion             -1.172687689968 Eh    ::
         :: -> Gsolv                  -1.959069175262 Eh    ::
         ::    -> Gelec               -1.820018933246 Eh    ::
         ::    -> Gsasa               -0.001976459104 Eh    ::
         ::    -> Ghb                 -0.138931226039 Eh    ::
         ::    -> Gshift               0.001857443127 Eh    ::
         :: repulsion energy          13.466022828027 Eh    ::
         :: add. restraining           0.000000000000 Eh    ::
         :: total charge               0.000000000011 e     ::
         :::::::::::::::::::::::::::::::::::::::::::::::::::::

           -------------------------------------------------
          |                Property Printout                |
           -------------------------------------------------

    * Orbital Energies and Occupations

         #    Occupation            Energy/Eh            Energy/eV
      -------------------------------------------------------------
         1        2.0000           -0.7918599             -21.5476
       ...           ...                  ...                  ...
      1169        1.6932           -0.4352717             -11.8443
      1170        1.6662           -0.4351763             -11.8417
      1171        1.6654           -0.4351737             -11.8417
      1172        1.6540           -0.4351352             -11.8406
      1173        1.6504           -0.4351234             -11.8403
      1174        1.6065           -0.4349854             -11.8366
      1175        1.5944           -0.4349493             -11.8356
      1176        1.5910           -0.4349393             -11.8353
      1177        1.5031           -0.4347004             -11.8288
      1178        1.4991           -0.4346904             -11.8285
      1179        1.4851           -0.4346551             -11.8276
      1180        1.4653           -0.4346067             -11.8263
      1181        1.4051           -0.4344654             -11.8224 (HOMO)
      1182        1.3494           -0.4343419             -11.8190 (LUMO)
      1183        1.3104           -0.4342588             -11.8168
      1184        1.2489           -0.4341319             -11.8133
      1185        1.1969           -0.4340280             -11.8105
      1186        1.1315           -0.4339001             -11.8070
      1187        1.1172           -0.4338726             -11.8063
      1188        1.0214           -0.4336895             -11.8013
      1189        0.9319           -0.4335193             -11.7967
      1190        0.9172           -0.4334911             -11.7959
      1191        0.7988           -0.4332612             -11.7896
      1192                         -0.3163403              -8.6081
       ...                                ...                  ...
      2101                          1.3413780              36.5008
      -------------------------------------------------------------
                  HL-Gap            0.0001234 Eh            0.0034 eV
             Fermi-level           -0.4336489 Eh          -11.8002 eV

 * generalized Born model for continuum solvation

     #   Z     Born rad/Å   SASA/Å²    H-bond
     1   8 O        2.264     7.717    -0.001
     2   6 C        2.721     0.780    -0.000
     3   6 C        3.125     0.334    -0.000
     4   8 O        2.899     8.292    -0.001
     5   6 C        3.218     0.440    -0.000
     6   8 O        2.626     4.806    -0.001
     7   6 C        3.263     0.498    -0.000
     8   6 C        3.514     0.187    -0.000
     9   7 N        3.515     0.057    -0.000
    10   6 C        3.373     4.102    -0.000
    11   8 O        2.626    10.341    -0.001
    12   7 N        3.280     2.936    -0.001
    13   6 C        3.405     4.118    -0.000
    14   7 N        2.549     5.756    -0.002
    15   6 C        3.093     7.781    -0.000
    16   6 C        3.167     4.326    -0.000
    17   1 H        2.062    18.134    -0.024
    18   1 H        2.059    17.806    -0.024
    19   1 H        2.135    16.563    -0.022
    20   1 H        2.210     9.171    -0.012
    21   1 H        2.360     8.386    -0.011
    22   1 H        2.404     1.489    -0.002
    23   1 H        2.377     7.235    -0.010
    24   1 H        2.146    20.139    -0.027
    25   1 H        2.470     4.851    -0.006
    26   1 H        2.103    17.976    -0.024
    27   1 H        2.269     6.598    -0.009
    28   1 H        1.912    23.139    -0.031
    29  15 P        3.162    10.639    -0.001
    30   8 O        2.173    24.162    -0.003
    31   8 O        2.197    23.679    -0.003
    32   8 O        2.653     1.347    -0.000
    33   6 C        2.872     0.341    -0.000
    34   6 C        3.206     0.266    -0.000
    35   8 O        2.963     5.577    -0.001
    36   6 C        3.305     0.093    -0.000
    37   8 O        2.598     5.854    -0.001
    38   6 C        3.355     0.164    -0.000
    39   6 C        3.632     0.512    -0.000
    40   7 N        3.906     0.068    -0.000
    41   6 C        3.409     1.117    -0.000
    42   7 N        2.999     6.960    -0.002
    43   6 C        4.456     0.014    -0.000
    44   6 C        3.811     0.025    -0.000
    45   8 O        2.781     5.798    -0.001
    46   7 N        3.750     0.001    -0.000
    47   6 C        3.919     0.573    -0.000
    48   7 N        2.729     3.132    -0.001
    49   7 N        3.227     5.712    -0.002
    50   6 C        4.480     0.593    -0.000
    51   1 H        2.177    11.648    -0.016
    52   1 H        2.149    13.642    -0.018
    53   1 H        2.160    15.543    -0.021
    54   1 H        2.304     8.101    -0.011
    55   1 H        2.382     7.689    -0.010
    56   1 H        2.521     0.637    -0.001
    57   1 H        2.527     4.997    -0.007
    58   1 H        2.379     5.730    -0.008
    59   1 H        3.651     0.004    -0.000
    60   1 H        2.245    19.697    -0.026
    61   1 H        2.585     3.483    -0.005
    62  15 P        3.182    10.825    -0.001
    63   8 O        2.172    25.196    -0.003
    64   8 O        2.194    24.131    -0.003
    65   8 O        2.667     1.967    -0.000
    66   6 C        2.915     0.317    -0.000
    67   6 C        3.372     0.086    -0.000
    68   8 O        3.090     3.923    -0.001
    69   6 C        3.335     0.238    -0.000
    70   8 O        2.708     4.164    -0.001
    71   6 C        3.423     0.251    -0.000
    72   6 C        3.760     0.075    -0.000
    73   7 N        3.923     0.000    -0.000
    74   6 C        3.848     0.004    -0.000
    75   8 O        2.905     2.516    -0.000
    76   7 N        3.809     0.001    -0.000
    77   6 C        3.998    -0.002     0.000
    78   7 N        2.722     1.480    -0.000
    79   6 C        3.463     0.237    -0.000
    80   6 C        3.618     0.073    -0.000
    81   1 H        2.246     7.772    -0.010
    82   1 H        2.170    12.698    -0.017
    83   1 H        2.267    14.341    -0.019
    84   1 H        2.258     9.483    -0.013
    85   1 H        2.443     4.819    -0.006
    86   1 H        2.546     0.537    -0.001
    87   1 H        2.492     5.410    -0.007
    88   1 H        2.247    18.267    -0.024
    89   1 H        2.604     2.697    -0.004
    90   1 H        2.198    12.713    -0.017
    91   1 H        2.515     2.935    -0.004
    92  15 P        3.204     9.849    -0.001
    93   8 O        2.188    24.747    -0.003
    94   8 O        2.221    23.088    -0.003
    95   8 O        2.737     0.417    -0.000
    96   6 C        2.876     0.646    -0.000
    97   6 C        3.329     0.151    -0.000
    98   8 O        3.014     3.871    -0.001
    99   6 C        3.316     0.162    -0.000
   100   8 O        2.570     6.291    -0.001
   101   6 C        3.318     0.606    -0.000
   102   6 C        3.689     0.179    -0.000
   103   7 N        3.739     0.012    -0.000
   104   6 C        3.590     0.530    -0.000
   105   8 O        2.560    12.214    -0.002
   106   7 N        3.431     0.005    -0.000
   107   6 C        3.751     0.000    -0.000
   108   8 O        2.783     4.929    -0.001
   109   6 C        4.029     0.000    -0.000
   110   6 C        2.862     2.028    -0.000
   111   6 C        3.699     0.139    -0.000
   112   1 H        2.170    11.919    -0.016
   113   1 H        2.126    14.609    -0.020
   114   1 H        2.226    15.043    -0.020
   115   1 H        2.331     5.913    -0.008
   116   1 H        2.399     7.395    -0.010
   117   1 H        2.370     0.776    -0.001
   118   1 H        2.434     8.949    -0.012
   119   1 H        3.214     0.011    -0.000
   120   1 H        2.294     7.098    -0.009
   121   1 H        2.248    10.097    -0.013
   122   1 H        2.238     7.435    -0.010
   123   1 H        2.612     1.283    -0.002
   124  15 P        3.159    10.917    -0.001
   125   8 O        2.176    24.529    -0.003
   126   8 O        2.198    23.771    -0.003
   127   8 O        2.634     1.458    -0.000
   128   6 C        2.869     0.372    -0.000
   129   6 C        3.361     0.154    -0.000
   130   8 O        2.966     6.831    -0.001
   131   6 C        3.368     0.192    -0.000
   132   8 O        2.746     0.544    -0.000
   133   6 C        3.213     0.927    -0.000
   134   6 C        3.639     0.122    -0.000
   135   7 N        3.564     1.144    -0.000
   136   6 C        3.520     3.470    -0.000
   137   8 O        2.690     6.813    -0.001
   138   7 N        3.511     0.658    -0.000
   139   6 C        3.780     2.556    -0.000
   140   7 N        2.728     0.688    -0.000
   141   6 C        3.280     4.034    -0.000
   142   6 C        3.276     3.243    -0.000
   143   1 H        2.177    13.383    -0.018
   144   1 H        2.179     9.065    -0.012
   145   1 H        2.291     8.410    -0.011
   146   1 H        2.308     8.598    -0.011
   147   1 H        2.341     7.628    -0.010
   148   1 H        2.215    17.308    -0.023
   149   1 H        2.549     2.181    -0.003
   150   1 H        2.262    14.068    -0.019
   151   1 H        2.686     1.079    -0.001
   152   1 H        2.196    11.832    -0.016
   153   1 H        2.295     8.249    -0.011
   154   6 C        3.195     0.113    -0.000
   155   8 O        2.437     6.540    -0.001
   156   6 C        3.316     0.004    -0.000
   157   6 C        3.330     0.197    -0.000
   158   8 O        2.595     7.454    -0.001
   159   6 C        3.187     0.331    -0.000
   160   8 O        2.797     8.488    -0.001
   161   6 C        2.816     0.975    -0.000
   162   8 O        2.564     5.213    -0.001
   163  15 P        3.209     7.344    -0.001
   164   8 O        2.183    27.520    -0.004
   165   8 O        2.245    16.439    -0.002
   166   1 H        2.315     5.373    -0.007
   167   1 H        2.109     9.653    -0.013
   168   1 H        2.555     0.822    -0.001
   169   1 H        2.442     1.525    -0.002
   170   1 H        2.308     8.019    -0.011
   171   1 H        2.167    16.619    -0.022
   172   1 H        2.159    10.792    -0.014
   173   1 H        2.100    18.410    -0.025
   174  15 P        3.207     9.113    -0.001
   175   8 O        2.191    24.386    -0.003
   176   8 O        2.228    21.729    -0.003
   177   8 O        2.786     0.012    -0.000
   178   6 C        2.932     0.352    -0.000
   179   6 C        3.241     0.580    -0.000
   180   8 O        3.002     8.856    -0.001
   181   6 C        3.381     0.286    -0.000
   182   8 O        2.707     4.620    -0.001
   183   6 C        3.380     0.636    -0.000
   184   6 C        3.692     0.311    -0.000
   185   7 N        3.732     0.252    -0.000
   186   6 C        3.663     0.312    -0.000
   187   8 O        2.821     4.658    -0.001
   188   7 N        3.764     0.014    -0.000
   189   6 C        3.862     1.052    -0.000
   190   7 N        2.767     3.025    -0.001
   191   6 C        3.395     2.173    -0.000
   192   6 C        3.529     1.048    -0.000
   193   1 H        2.247     9.614    -0.013
   194   1 H        2.171    13.275    -0.018
   195   1 H        2.141    17.295    -0.023
   196   1 H        2.245     8.947    -0.012
   197   1 H        2.452     6.680    -0.009
   198   1 H        2.446     1.825    -0.002
   199   1 H        2.497     4.703    -0.006
   200   1 H        2.282    17.514    -0.023
   201   1 H        2.752     2.661    -0.004
   202   1 H        2.232    11.302    -0.015
   203   1 H        2.554     1.163    -0.002
   204  15 P        3.176    10.560    -0.001
   205   8 O        2.182    24.641    -0.003
   206   8 O        2.201    23.748    -0.003
   207   8 O        2.654     1.757    -0.000
   208   6 C        2.893     0.628    -0.000
   209   6 C        3.322     0.205    -0.000
   210   8 O        3.133     2.603    -0.000
   211   6 C        3.306     0.373    -0.000
   212   8 O        2.635     5.308    -0.001
   213   6 C        3.371     0.188    -0.000
   214   6 C        3.774     0.151    -0.000
   215   7 N        4.131     0.000    -0.000
   216   6 C        3.483     0.484    -0.000
   217   7 N        3.137     4.727    -0.001
   218   6 C        5.056     0.000     0.000
   219   6 C        4.420     0.003    -0.000
   220   7 N        2.951     0.127    -0.000
   221   7 N        3.652     0.460    -0.000
   222   6 C        3.347     2.388    -0.000
   223   7 N        3.146     4.831    -0.001
   224   6 C        4.688     0.012    -0.000
   225   1 H        2.243     8.062    -0.011
   226   1 H        2.131    15.060    -0.020
   227   1 H        2.236    14.731    -0.020
   228   1 H        2.283     8.010    -0.011
   229   1 H        2.363     9.115    -0.012
   230   1 H        2.437     1.004    -0.001
   231   1 H        2.612     5.089    -0.007
   232   1 H        2.400     7.228    -0.010
   233   1 H        2.489     7.679    -0.010
   234   1 H        2.815     1.087    -0.001
   235   1 H        2.316    13.296    -0.018
   236  15 P        3.179     9.721    -0.001
   237   8 O        2.154    27.410    -0.004
   238   8 O        2.215    22.334    -0.003
   239   8 O        2.641     1.811    -0.000
   240   6 C        2.879     0.698    -0.000
   241   6 C        3.274     0.231    -0.000
   242   8 O        2.981     4.478    -0.001
   243   6 C        3.327     0.073    -0.000
   244   8 O        2.635     4.896    -0.001
   245   6 C        3.374     0.139    -0.000
   246   6 C        3.654     0.524    -0.000
   247   7 N        3.776     0.021    -0.000
   248   6 C        3.601     0.634    -0.000
   249   8 O        2.743    10.190    -0.001
   250   7 N        3.620     0.082    -0.000
   251   6 C        3.969     0.226    -0.000
   252   7 N        2.838     0.267    -0.000
   253   6 C        3.446     4.050    -0.000
   254   6 C        3.494     1.272    -0.000
   255   1 H        2.217     8.454    -0.011
   256   1 H        2.125    15.641    -0.021
   257   1 H        2.226    14.415    -0.019
   258   1 H        2.278     7.412    -0.010
   259   1 H        2.405     7.982    -0.011
   260   1 H        2.543     0.065    -0.000
   261   1 H        2.453     6.993    -0.009
   262   1 H        2.349    11.240    -0.015
   263   1 H        2.793     0.595    -0.001
   264   1 H        2.248    11.629    -0.016
   265   1 H        2.413     4.608    -0.006
   266  15 P        3.184    10.247    -0.001
   267   8 O        2.175    24.918    -0.003
   268   8 O        2.202    23.386    -0.003
   269   8 O        2.687     0.521    -0.000
   270   6 C        2.932     0.404    -0.000
   271   6 C        3.228     0.334    -0.000
   272   8 O        2.942     9.963    -0.001
   273   6 C        3.273     0.301    -0.000
   274   8 O        2.608     5.138    -0.001
   275   6 C        3.264     0.648    -0.000
   276   6 C        3.614     0.170    -0.000
   277   7 N        3.884     0.478    -0.000
   278   6 C        3.408     0.358    -0.000
   279   7 N        3.024     6.231    -0.002
   280   6 C        4.422     0.022    -0.000
   281   6 C        3.812     0.054    -0.000
   282   8 O        2.776     5.625    -0.001
   283   7 N        3.798     0.008    -0.000
   284   6 C        3.925     0.550    -0.000
   285   7 N        2.757     1.575    -0.000
   286   7 N        3.271     5.755    -0.002
   287   6 C        4.511     0.134    -0.000
   288   1 H        2.254     7.325    -0.010
   289   1 H        2.187    11.821    -0.016
   290   1 H        2.190    16.020    -0.021
   291   1 H        2.220     9.580    -0.013
   292   1 H        2.358     7.073    -0.009
   293   1 H        2.371     1.236    -0.002
   294   1 H        2.491     5.453    -0.007
   295   1 H        2.410     6.156    -0.008
   296   1 H        3.627     0.004    -0.000
   297   1 H        2.230    21.940    -0.029
   298   1 H        2.724     1.561    -0.002
   299  15 P        3.143    10.343    -0.001
   300   8 O        2.167    24.729    -0.003
   301   8 O        2.186    23.871    -0.003
   302   8 O        2.577     2.509    -0.000
   303   6 C        2.820     0.353    -0.000
   304   6 C        3.167     0.249    -0.000
   305   8 O        2.965     3.442    -0.000
   306   6 C        3.118     0.143    -0.000
   307   8 O        2.292    15.005    -0.002
   308   6 C        3.084     1.117    -0.000
   309   6 C        3.434     0.548    -0.000
   310   7 N        3.493     0.887    -0.000
   311   6 C        3.376     4.586    -0.000
   312   8 O        2.612    10.264    -0.001
   313   7 N        3.332     3.067    -0.001
   314   6 C        3.584     3.856    -0.000
   315   7 N        2.635     3.800    -0.001
   316   6 C        3.224     5.186    -0.000
   317   6 C        3.266     2.359    -0.000
   318   1 H        2.149    12.578    -0.017
   319   1 H        2.112    14.634    -0.020
   320   1 H        2.165    15.405    -0.021
   321   1 H        2.212    11.513    -0.015
   322   1 H        1.952    19.838    -0.027
   323   1 H        2.270    10.701    -0.014
   324   1 H        2.157    15.479    -0.021
   325   1 H        2.311    11.019    -0.015
   326   1 H        2.219    16.637    -0.022
   327   1 H        2.449     5.915    -0.008
   328   1 H        2.152    14.055    -0.019
   329   1 H        2.320     5.804    -0.008
   330   8 O        2.306     5.885    -0.001
   331   6 C        2.766     0.828    -0.000
   332   6 C        3.126     0.547    -0.000
   333   8 O        2.832     9.871    -0.001
   334   6 C        3.253     0.324    -0.000
   335   8 O        2.623     4.415    -0.001
   336   6 C        3.273     0.200    -0.000
   337   6 C        3.627     0.126    -0.000
   338   7 N        3.869     0.062    -0.000
   339   6 C        3.192     3.621    -0.000
   340   7 N        2.759    17.154    -0.005
   341   6 C        3.926     2.989    -0.000
   342   6 C        3.377     3.897    -0.000
   343   8 O        2.487    14.877    -0.002
   344   7 N        3.405     1.706    -0.001
   345   6 C        3.772     3.124    -0.000
   346   7 N        2.678     3.885    -0.001
   347   7 N        3.201     6.699    -0.002
   348   6 C        4.394     2.196    -0.000
   349   1 H        2.094    16.433    -0.022
   350   1 H        2.069    18.039    -0.024
   351   1 H        2.132    16.601    -0.022
   352   1 H        2.238     8.781    -0.012
   353   1 H        2.346     6.846    -0.009
   354   1 H        2.449     0.567    -0.001
   355   1 H        2.505     4.690    -0.006
   356   1 H        2.293     8.265    -0.011
   357   1 H        3.221     0.775    -0.001
   358   1 H        2.212    20.629    -0.028
   359   1 H        2.508     4.962    -0.007
   360   1 H        1.924    22.483    -0.030
   361  15 P        3.183     8.972    -0.001
   362   8 O        2.171    26.380    -0.004
   363   8 O        2.219    22.628    -0.003
   364   8 O        2.620     3.926    -0.001
   365   6 C        2.856     0.477    -0.000
   366   6 C        3.267     0.180    -0.000
   367   8 O        3.047     2.079    -0.000
   368   6 C        3.322     0.020    -0.000
   369   8 O        2.615     5.154    -0.001
   370   6 C        3.406     0.022    -0.000
   371   6 C        3.749     0.238    -0.000
   372   7 N        3.871     0.004    -0.000
   373   6 C        3.745     0.211    -0.000
   374   8 O        2.793     6.505    -0.001
   375   7 N        3.753     0.003    -0.000
   376   6 C        4.079     0.002    -0.000
   377   7 N        2.805     0.262    -0.000
   378   6 C        3.466     1.528    -0.000
   379   6 C        3.521     1.045    -0.000
   380   1 H        2.180    11.793    -0.016
   381   1 H        2.113    15.767    -0.021
   382   1 H        2.230    14.352    -0.019
   383   1 H        2.275     8.315    -0.011
   384   1 H        2.455     5.525    -0.007
   385   1 H        2.570     0.169    -0.000
   386   1 H        2.466     8.756    -0.012
   387   1 H        2.317    12.388    -0.017
   388   1 H        2.718     1.979    -0.003
   389   1 H        2.195    13.634    -0.018
   390   1 H        2.412     7.582    -0.010
   391  15 P        3.200     8.340    -0.001
   392   8 O        2.185    24.617    -0.003
   393   8 O        2.206    23.284    -0.003
   394   8 O        2.743     0.075    -0.000
   395   6 C        2.903     0.611    -0.000
   396   6 C        3.277     0.369    -0.000
   397   8 O        2.926     9.823    -0.001
   398   6 C        3.343     0.326    -0.000
   399   8 O        2.652     5.549    -0.001
   400   6 C        3.361     0.366    -0.000
   401   6 C        3.737     0.031    -0.000
   402   7 N        4.077     0.105    -0.000
   403   6 C        3.568     0.029    -0.000
   404   7 N        3.102     4.666    -0.001
   405   6 C        4.461     0.041    -0.000
   406   6 C        3.815     0.066    -0.000
   407   8 O        2.826     3.903    -0.001
   408   7 N        3.732     0.203    -0.000
   409   6 C        3.888     0.478    -0.000
   410   7 N        2.753     2.670    -0.001
   411   7 N        3.236     7.179    -0.002
   412   6 C        4.581     0.238    -0.000
   413   1 H        2.190    10.326    -0.014
   414   1 H        2.141    13.294    -0.018
   415   1 H        2.172    16.540    -0.022
   416   1 H        2.264     9.763    -0.013
   417   1 H        2.444     5.574    -0.007
   418   1 H        2.388     2.150    -0.003
   419   1 H        2.522     4.490    -0.006
   420   1 H        2.530     3.386    -0.005
   421   1 H        3.509     0.403    -0.001
   422   1 H        2.223    22.479    -0.030
   423   1 H        2.752     1.573    -0.002
   424  15 P        3.194     8.398    -0.001
   425   8 O        2.181    24.977    -0.003
   426   8 O        2.209    23.735    -0.003
   427   8 O        2.692     0.401    -0.000
   428   6 C        2.847     0.542    -0.000
   429   6 C        3.226     0.329    -0.000
   430   8 O        2.935     5.384    -0.001
   431   6 C        3.353     0.036    -0.000
   432   8 O        2.656     4.373    -0.001
   433   6 C        3.290     0.211    -0.000
   434   6 C        3.587     0.193    -0.000
   435   7 N        3.643     0.055    -0.000
   436   6 C        3.551     0.559    -0.000
   437   8 O        2.522    15.450    -0.002
   438   7 N        3.444     0.010    -0.000
   439   6 C        3.657     0.005    -0.000
   440   8 O        2.671     7.546    -0.001
   441   6 C        3.915     0.066    -0.000
   442   6 C        2.805     2.528    -0.000
   443   6 C        3.596     0.673    -0.000
   444   1 H        2.132    14.236    -0.019
   445   1 H        2.128    14.125    -0.019
   446   1 H        2.182    15.505    -0.021
   447   1 H        2.324     5.706    -0.008
   448   1 H        2.368     8.355    -0.011
   449   1 H        2.393     1.439    -0.002
   450   1 H        2.409     5.829    -0.008
   451   1 H        3.168     0.323    -0.000
   452   1 H        2.243    10.795    -0.014
   453   1 H        2.202    13.074    -0.017
   454   1 H        2.171    16.521    -0.022
   455   1 H        2.465     2.027    -0.003
   456  15 P        3.179    11.396    -0.001
   457   8 O        2.178    25.353    -0.003
   458   8 O        2.217    22.309    -0.003
   459   8 O        2.665     1.937    -0.000
   460   6 C        2.877     0.456    -0.000
   461   6 C        3.305     0.235    -0.000
   462   8 O        2.991     3.759    -0.001
   463   6 C        3.419     0.002    -0.000
   464   8 O        2.682     3.725    -0.001
   465   6 C        3.498     0.000    -0.000
   466   6 C        3.711     0.696    -0.000
   467   7 N        4.072     0.115    -0.000
   468   6 C        3.452     1.594    -0.000
   469   7 N        3.064     6.799    -0.002
   470   6 C        4.554     0.014    -0.000
   471   6 C        3.896     0.007    -0.000
   472   8 O        2.792     5.684    -0.001
   473   7 N        3.941     0.000     0.000
   474   6 C        4.169     0.032    -0.000
   475   7 N        2.837     1.552    -0.000
   476   7 N        3.252     5.115    -0.002
   477   6 C        4.563     0.563    -0.000
   478   1 H        2.180    11.676    -0.016
   479   1 H        2.135    14.215    -0.019
   480   1 H        2.242    14.217    -0.019
   481   1 H        2.366     6.622    -0.009
   482   1 H        2.510     5.067    -0.007
   483   1 H        2.579     0.063    -0.000
   484   1 H        2.490    11.053    -0.015
   485   1 H        2.390     7.747    -0.010
   486   1 H        3.861     0.000     0.000
   487   1 H        2.297    21.279    -0.028
   488   1 H        2.791     1.594    -0.002
   489  15 P        3.190    10.884    -0.001
   490   8 O        2.177    25.102    -0.003
   491   8 O        2.216    22.319    -0.003
   492   8 O        2.672     1.118    -0.000
   493   6 C        2.887     0.422    -0.000
   494   6 C        3.238     0.277    -0.000
   495   8 O        2.983     6.815    -0.001
   496   6 C        3.298     0.286    -0.000
   497   8 O        2.645     4.742    -0.001
   498   6 C        3.393     0.267    -0.000
   499   6 C        3.610     0.779    -0.000
   500   7 N        4.001     0.121    -0.000
   501   6 C        3.440     2.978    -0.000
   502   7 N        3.023     9.678    -0.003
   503   6 C        4.498     0.075    -0.000
   504   6 C        3.810     0.030    -0.000
   505   8 O        2.622     9.252    -0.001
   506   7 N        3.750     0.000     0.000
   507   6 C        4.172     0.083    -0.000
   508   7 N        2.842     0.348    -0.000
   509   7 N        3.339     4.575    -0.001
   510   6 C        4.674     0.090    -0.000
   511   1 H        2.189    11.401    -0.015
   512   1 H        2.144    13.625    -0.018
   513   1 H        2.199    15.836    -0.021
   514   1 H        2.234     9.164    -0.012
   515   1 H        2.455     7.869    -0.011
   516   1 H        2.504     0.283    -0.000
   517   1 H        2.374     8.777    -0.012
   518   1 H        2.445     4.222    -0.006
   519   1 H        2.817     4.652    -0.006
   520   1 H        2.302    18.389    -0.025
   521   1 H        2.534     4.371    -0.006
   522  15 P        3.187     9.331    -0.001
   523   8 O        2.179    25.211    -0.003
   524   8 O        2.208    23.525    -0.003
   525   8 O        2.701     0.424    -0.000
   526   6 C        2.894     0.401    -0.000
   527   6 C        3.336     0.118    -0.000
   528   8 O        3.061     7.064    -0.001
   529   6 C        3.324     0.072    -0.000
   530   8 O        2.665     4.604    -0.001
   531   6 C        3.442     0.222    -0.000
   532   6 C        3.766     0.205    -0.000
   533   7 N        4.205     0.040    -0.000
   534   6 C        3.471     1.881    -0.000
   535   7 N        2.983     9.971    -0.003
   536   6 C        4.467     0.026    -0.000
   537   6 C        3.842     0.018    -0.000
   538   8 O        2.671     9.910    -0.001
   539   7 N        3.842     0.000    -0.000
   540   6 C        4.218     0.005    -0.000
   541   7 N        2.816     0.470    -0.000
   542   7 N        3.392     4.214    -0.001
   543   6 C        4.649     0.329    -0.000
   544   1 H        2.173    11.449    -0.015
   545   1 H        2.161    12.290    -0.016
   546   1 H        2.254    14.064    -0.019
   547   1 H        2.266     8.773    -0.012
   548   1 H        2.460     6.917    -0.009
   549   1 H        2.549     0.342    -0.000
   550   1 H        2.477     6.121    -0.008
   551   1 H        2.418     6.118    -0.008
   552   1 H        3.490     0.000    -0.000
   553   1 H        2.286    17.868    -0.024
   554   1 H        2.696     1.369    -0.002
   555  15 P        3.182    10.879    -0.001
   556   8 O        2.170    25.883    -0.004
   557   8 O        2.202    24.181    -0.003
   558   8 O        2.744     0.724    -0.000
   559   6 C        2.914     0.667    -0.000
   560   6 C        3.315     0.240    -0.000
   561   8 O        3.060     4.806    -0.001
   562   6 C        3.372     0.239    -0.000
   563   8 O        2.637     4.872    -0.001
   564   6 C        3.369     0.385    -0.000
   565   6 C        3.688     0.323    -0.000
   566   7 N        4.028     0.014    -0.000
   567   6 C        3.529     0.351    -0.000
   568   7 N        3.145     5.980    -0.002
   569   6 C        4.920     0.000    -0.000
   570   6 C        4.491     0.000    -0.000
   571   7 N        2.862     0.143    -0.000
   572   7 N        3.657     0.035    -0.000
   573   6 C        3.346     2.360    -0.000
   574   7 N        3.071     7.683    -0.002
   575   6 C        4.686     0.184    -0.000
   576   1 H        2.237     8.792    -0.012
   577   1 H        2.134    15.004    -0.020
   578   1 H        2.230    15.297    -0.020
   579   1 H        2.320     7.377    -0.010
   580   1 H        2.449     6.467    -0.009
   581   1 H        2.416     1.434    -0.002
   582   1 H        2.470     4.897    -0.007
   583   1 H        2.398     8.111    -0.011
   584   1 H        2.353    11.648    -0.016
   585   1 H        2.844     0.457    -0.001
   586   1 H        2.351    11.577    -0.015
   587  15 P        3.175    11.314    -0.001
   588   8 O        2.167    25.849    -0.004
   589   8 O        2.199    23.397    -0.003
   590   8 O        2.665     0.896    -0.000
   591   6 C        2.889     0.532    -0.000
   592   6 C        3.277     0.251    -0.000
   593   8 O        3.064     3.506    -0.000
   594   6 C        3.297     0.277    -0.000
   595   8 O        2.641     4.084    -0.001
   596   6 C        3.251     0.421    -0.000
   597   6 C        3.650     0.241    -0.000
   598   7 N        3.914     0.032    -0.000
   599   6 C        3.556     0.205    -0.000
   600   7 N        3.247     0.067    -0.000
   601   6 C        4.757     0.000    -0.000
   602   6 C        3.888     0.011    -0.000
   603   8 O        2.720     5.852    -0.001
   604   7 N        3.732     0.001    -0.000
   605   6 C        3.936     0.181    -0.000
   606   7 N        2.801     1.603    -0.000
   607   7 N        3.243     6.869    -0.002
   608   6 C        4.592     0.406    -0.000
   609   8 O        2.521    12.805    -0.002
   610   1 H        2.215     9.318    -0.012
   611   1 H        2.142    14.523    -0.019
   612   1 H        2.198    16.029    -0.021
   613   1 H        2.238     8.954    -0.012
   614   1 H        2.398     1.278    -0.002
   615   1 H        2.301     9.043    -0.012
   616   1 H        2.552     5.683    -0.008
   617   1 H        2.357    12.431    -0.017
   618   1 H        3.543     0.001    -0.000
   619   1 H        2.268    19.302    -0.026
   620   1 H        2.707     2.145    -0.003
   621  15 P        3.205     8.580    -0.001
   622   8 O        2.186    24.439    -0.003
   623   8 O        2.204    22.961    -0.003
   624   8 O        2.683     0.623    -0.000
   625   6 C        2.921     0.378    -0.000
   626   6 C        3.255     0.351    -0.000
   627   8 O        2.922     9.859    -0.001
   628   6 C        3.311     0.278    -0.000
   629   8 O        2.653     4.367    -0.001
   630   6 C        3.304     0.745    -0.000
   631   6 C        3.649     0.106    -0.000
   632   7 N        3.697     0.399    -0.000
   633   6 C        3.620     0.689    -0.000
   634   8 O        2.696     8.695    -0.001
   635   7 N        3.706     0.002    -0.000
   636   6 C        4.040     0.100    -0.000
   637   7 N        2.898     0.414    -0.000
   638   6 C        3.508     1.467    -0.000
   639   6 C        3.422     1.228    -0.000
   640   1 H        2.209    10.335    -0.014
   641   1 H        2.177    12.057    -0.016
   642   1 H        2.178    16.202    -0.022
   643   1 H        2.206     9.606    -0.013
   644   1 H        2.398     6.310    -0.008
   645   1 H        2.411     1.342    -0.002
   646   1 H        2.493     5.270    -0.007
   647   1 H        2.448     9.752    -0.013
   648   1 H        2.906     0.859    -0.001
   649   1 H        2.297     8.345    -0.011
   650   1 H        2.398     3.140    -0.004
   651  15 P        3.145    10.812    -0.001
   652   8 O        2.179    23.554    -0.003
   653   8 O        2.171    25.293    -0.003
   654   8 O        2.613     2.069    -0.000
   655   6 C        2.799     0.556    -0.000
   656   6 C        3.197     0.177    -0.000
   657   8 O        2.945     4.078    -0.001
   658   6 C        3.113     0.223    -0.000
   659   8 O        2.311    14.461    -0.002
   660   6 C        3.129     0.844    -0.000
   661   6 C        3.470     0.252    -0.000
   662   7 N        3.737     0.512    -0.000
   663   6 C        3.254     3.446    -0.000
   664   7 N        2.843    12.549    -0.004
   665   6 C        3.925     3.162    -0.000
   666   6 C        3.329     4.471    -0.000
   667   8 O        2.488    14.471    -0.002
   668   7 N        3.310     2.112    -0.001
   669   6 C        3.646     4.107    -0.000
   670   7 N        2.677     3.718    -0.001
   671   7 N        3.092     7.944    -0.002
   672   6 C        4.033     3.545    -0.000
   673   1 H        2.140    12.381    -0.017
   674   1 H        2.089    16.044    -0.021
   675   1 H        2.207    13.747    -0.018
   676   1 H        2.203    11.756    -0.016
   677   1 H        1.959    19.984    -0.027
   678   1 H        2.302    10.126    -0.014
   679   1 H        2.185    15.276    -0.020
   680   1 H        2.383    11.499    -0.015
   681   1 H        2.308     7.917    -0.011
   682   1 H        3.109     0.483    -0.001
   683   1 H        2.225    20.865    -0.028
   684   1 H        2.563     1.763    -0.002

 total SASA / Å² :     4256.681

     #   Z          covCN         q      C6AA      α(0)
     1   8 O        1.648    -0.448    21.802     6.303
     2   6 C        3.663     0.041    20.144     6.438
     3   6 C        3.804     0.091    19.074     6.218
     4   8 O        1.709    -0.251    18.159     5.753
     5   6 C        3.975     0.123    18.520     6.114
     6   8 O        1.660    -0.314    19.245     5.922
     7   6 C        3.834    -0.093    22.243     6.710
     8   6 C        3.761     0.167    17.964     6.042
     9   7 N        2.748    -0.058    22.358     7.023
    10   6 C        2.768     0.350    21.052     7.514
    11   8 O        0.885    -0.440    22.477     6.357
    12   7 N        1.892    -0.309    28.857     7.964
    13   6 C        2.888     0.198    23.788     7.996
    14   7 N        2.679    -0.187    25.046     7.433
    15   6 C        2.928    -0.065    29.611     8.924
    16   6 C        2.869     0.053    26.814     8.488
    17   1 H        0.924     0.108     1.712     2.046
    18   1 H        0.924     0.074     2.042     2.234
    19   1 H        0.924     0.083     1.944     2.180
    20   1 H        0.924     0.072     2.064     2.247
    21   1 H        0.925     0.115     1.657     2.013
    22   1 H        0.925     0.085     1.928     2.171
    23   1 H        0.924     0.101     1.776     2.084
    24   1 H        0.860     0.272     0.803     1.404
    25   1 H        0.860     0.266     0.823     1.421
    26   1 H        0.926     0.145     1.423     1.865
    27   1 H        0.926     0.140     1.459     1.889
    28   1 H        0.805     0.369     0.545     1.160
    29  15 P        3.710     0.596   136.372    20.977
    30   8 O        0.808    -0.555    25.076     6.713
    31   8 O        0.808    -0.536    24.625     6.652
    32   8 O        1.657    -0.325    19.447     5.953
    33   6 C        3.933     0.085    19.119     6.214
    34   6 C        3.772     0.092    19.086     6.225
    35   8 O        1.707    -0.290    18.816     5.857
    36   6 C        3.878     0.117    18.624     6.136
    37   8 O        1.656    -0.351    19.923     6.026
    38   6 C        3.817    -0.102    22.431     6.741
    39   6 C        3.715     0.155    18.201     6.095
    40   7 N        2.795    -0.015    21.540     6.893
    41   6 C        3.161     0.098    25.529     8.259
    42   7 N        1.842    -0.169    25.465     7.479
    43   6 C        3.194     0.009    27.309     8.521
    44   6 C        2.773     0.276    22.331     7.740
    45   8 O        0.864    -0.369    21.066     6.154
    46   7 N        2.726    -0.152    24.294     7.320
    47   6 C        2.796     0.223    23.300     7.907
    48   7 N        2.660    -0.168    24.637     7.372
    49   7 N        1.837    -0.239    27.093     7.714
    50   6 C        3.046     0.125    25.227     8.238
    51   1 H        0.924     0.075     2.033     2.230
    52   1 H        0.925     0.047     2.358     2.402
    53   1 H        0.924     0.081     1.972     2.196
    54   1 H        0.925     0.055     2.255     2.348
    55   1 H        0.925     0.098     1.805     2.101
    56   1 H        0.926     0.099     1.790     2.092
    57   1 H        0.924     0.105     1.742     2.064
    58   1 H        0.926     0.118     1.633     1.998
    59   1 H        0.861     0.258     0.854     1.447
    60   1 H        0.860     0.302     0.706     1.317
    61   1 H        0.860     0.285     0.761     1.366
    62  15 P        3.608     0.594   136.453    20.984
    63   8 O        0.808    -0.540    24.725     6.665
    64   8 O        0.808    -0.514    24.124     6.584
    65   8 O        1.657    -0.309    19.175     5.911
    66   6 C        3.914     0.075    19.276     6.240
    67   6 C        3.851     0.080    19.220     6.236
    68   8 O        1.700    -0.265    18.389     5.790
    69   6 C        4.023     0.125    18.481     6.107
    70   8 O        1.661    -0.334    19.616     5.979
    71   6 C        3.861    -0.104    22.431     6.735
    72   6 C        3.751     0.154    18.161     6.077
    73   7 N        2.737    -0.050    22.199     6.998
    74   6 C        2.749     0.320    21.565     7.604
    75   8 O        0.866    -0.466    23.036     6.435
    76   7 N        1.868    -0.342    29.736     8.083
    77   6 C        2.885     0.163    24.479     8.111
    78   7 N        2.676    -0.172    24.725     7.385
    79   6 C        2.905    -0.084    30.111     8.998
    80   6 C        2.877     0.039    27.113     8.536
    81   1 H        0.925     0.080     1.976     2.198
    82   1 H        0.925     0.058     2.225     2.333
    83   1 H        0.924     0.104     1.748     2.067
    84   1 H        0.924     0.060     2.202     2.320
    85   1 H        0.925     0.108     1.712     2.046
    86   1 H        0.926     0.101     1.773     2.082
    87   1 H        0.924     0.123     1.588     1.971
    88   1 H        0.860     0.279     0.779     1.383
    89   1 H        0.860     0.285     0.760     1.366
    90   1 H        0.926     0.149     1.399     1.850
    91   1 H        0.926     0.106     1.733     2.058
    92  15 P        3.773     0.623   135.436    20.905
    93   8 O        0.808    -0.549    24.920     6.692
    94   8 O        0.808    -0.523    24.335     6.613
    95   8 O        1.660    -0.291    18.849     5.861
    96   6 C        3.932     0.071    19.330     6.248
    97   6 C        3.897     0.082    19.168     6.224
    98   8 O        1.701    -0.264    18.376     5.788
    99   6 C        3.925     0.107    18.767     6.157
   100   8 O        1.651    -0.325    19.461     5.955
   101   6 C        3.845    -0.101    22.400     6.732
   102   6 C        3.828     0.146    18.220     6.074
   103   7 N        2.737    -0.028    21.787     6.932
   104   6 C        2.705     0.314    21.666     7.619
   105   8 O        0.859    -0.411    21.911     6.276
   106   7 N        2.701    -0.185    25.008     7.427
   107   6 C        2.776     0.265    22.527     7.774
   108   8 O        0.864    -0.357    20.831     6.119
   109   6 C        2.956    -0.025    28.635     8.777
   110   6 C        3.758    -0.155    23.559     6.920
   111   6 C        2.871     0.019    27.579     8.609
   112   1 H        0.924     0.096     1.822     2.111
   113   1 H        0.924     0.057     2.235     2.338
   114   1 H        0.924     0.093     1.850     2.127
   115   1 H        0.925     0.068     2.112     2.273
   116   1 H        0.925     0.114     1.659     2.014
   117   1 H        0.925     0.106     1.729     2.056
   118   1 H        0.924     0.116     1.643     2.005
   119   1 H        0.860     0.262     0.837     1.433
   120   1 H        0.925     0.137     1.482     1.904
   121   1 H        0.925     0.092     1.855     2.130
   122   1 H        0.925     0.157     1.348     1.816
   123   1 H        0.926     0.127     1.560     1.953
   124  15 P        3.564     0.591   136.577    20.993
   125   8 O        0.808    -0.541    24.746     6.668
   126   8 O        0.808    -0.527    24.426     6.625
   127   8 O        1.659    -0.315    19.273     5.926
   128   6 C        3.840     0.087    19.112     6.219
   129   6 C        3.811     0.087    19.126     6.225
   130   8 O        1.702    -0.261    18.328     5.780
   131   6 C        3.999     0.119    18.580     6.124
   132   8 O        1.658    -0.295    18.929     5.873
   133   6 C        3.823    -0.117    22.710     6.781
   134   6 C        3.804     0.153    18.131     6.062
   135   7 N        2.739    -0.033    21.884     6.948
   136   6 C        2.743     0.319    21.575     7.605
   137   8 O        0.860    -0.421    22.097     6.302
   138   7 N        1.850    -0.264    27.703     7.801
   139   6 C        2.889     0.170    24.336     8.088
   140   7 N        2.658    -0.144    24.124     7.295
   141   6 C        2.904    -0.072    29.805     8.952
   142   6 C        2.881     0.041    27.074     8.530
   143   1 H        0.924     0.083     1.950     2.184
   144   1 H        0.925     0.058     2.219     2.330
   145   1 H        0.924     0.087     1.913     2.163
   146   1 H        0.924     0.054     2.267     2.355
   147   1 H        0.925     0.113     1.669     2.020
   148   1 H        0.925     0.150     1.392     1.845
   149   1 H        0.924     0.141     1.451     1.884
   150   1 H        0.860     0.284     0.764     1.370
   151   1 H        0.860     0.273     0.801     1.402
   152   1 H        0.926     0.173     1.245     1.745
   153   1 H        0.926     0.133     1.512     1.923
   154   6 C        3.731     0.219    17.265     5.931
   155   8 O        1.656    -0.403    20.907     6.173
   156   6 C        3.834    -0.106    22.497     6.748
   157   6 C        3.969     0.105    18.798     6.160
   158   8 O        1.655    -0.335    19.633     5.982
   159   6 C        3.820     0.086    19.147     6.227
   160   8 O        1.712    -0.241    17.991     5.727
   161   6 C        3.878     0.072    19.332     6.252
   162   8 O        1.659    -0.302    19.049     5.892
   163  15 P        3.648     0.643   134.732    20.851
   164   8 O        0.808    -0.507    23.958     6.561
   165   8 O        0.808    -0.548    24.908     6.690
   166   1 H        0.926     0.109     1.701     2.040
   167   1 H        0.804     0.369     0.545     1.160
   168   1 H        0.926     0.095     1.834     2.118
   169   1 H        0.925     0.115     1.651     2.009
   170   1 H        0.925     0.078     2.004     2.214
   171   1 H        0.925     0.110     1.694     2.035
   172   1 H        0.924     0.078     1.996     2.209
   173   1 H        0.924     0.079     1.992     2.207
   174  15 P        3.568     0.616   135.667    20.923
   175   8 O        0.808    -0.544    24.815     6.678
   176   8 O        0.808    -0.514    24.118     6.583
   177   8 O        1.657    -0.302    19.052     5.892
   178   6 C        3.810     0.068    19.430     6.274
   179   6 C        3.752     0.082    19.272     6.260
   180   8 O        1.703    -0.264    18.377     5.788
   181   6 C        4.010     0.131    18.395     6.093
   182   8 O        1.663    -0.328    19.508     5.963
   183   6 C        3.813    -0.091    22.233     6.711
   184   6 C        3.745     0.162    18.059     6.062
   185   7 N        2.734    -0.047    22.157     6.991
   186   6 C        2.763     0.334    21.329     7.563
   187   8 O        0.867    -0.440    22.487     6.358
   188   7 N        1.869    -0.324    29.243     8.016
   189   6 C        2.895     0.183    24.090     8.047
   190   7 N        2.696    -0.188    25.068     7.436
   191   6 C        2.930    -0.079    29.965     8.977
   192   6 C        2.912     0.038    27.145     8.543
   193   1 H        0.925     0.106     1.735     2.060
   194   1 H        0.924     0.066     2.131     2.283
   195   1 H        0.924     0.111     1.690     2.033
   196   1 H        0.924     0.047     2.357     2.401
   197   1 H        0.925     0.104     1.752     2.070
   198   1 H        0.925     0.084     1.942     2.179
   199   1 H        0.924     0.108     1.710     2.045
   200   1 H        0.860     0.293     0.735     1.343
   201   1 H        0.860     0.287     0.753     1.359
   202   1 H        0.926     0.164     1.302     1.785
   203   1 H        0.926     0.108     1.710     2.045
   204  15 P        3.600     0.580   136.972    21.024
   205   8 O        0.808    -0.543    24.779     6.673
   206   8 O        0.808    -0.551    24.980     6.700
   207   8 O        1.655    -0.342    19.754     6.000
   208   6 C        3.826     0.073    19.339     6.258
   209   6 C        3.899     0.093    19.000     6.196
   210   8 O        1.711    -0.268    18.445     5.799
   211   6 C        3.894     0.124    18.523     6.118
   212   8 O        1.654    -0.348    19.878     6.019
   213   6 C        3.849    -0.091    22.196     6.701
   214   6 C        3.815     0.166    17.929     6.026
   215   7 N        2.837    -0.037    21.962     6.960
   216   6 C        3.209     0.103    25.133     8.162
   217   7 N        1.874    -0.183    25.770     7.525
   218   6 C        3.195    -0.030    28.207     8.659
   219   6 C        2.883     0.156    24.631     8.136
   220   7 N        2.671    -0.174    24.769     7.392
   221   7 N        1.860    -0.248    27.317     7.747
   222   6 C        2.887     0.123    25.290     8.245
   223   7 N        1.831    -0.178    25.653     7.505
   224   6 C        3.184     0.128    24.785     8.125
   225   1 H        0.924     0.099     1.797     2.097
   226   1 H        0.925     0.057     2.238     2.340
   227   1 H        0.924     0.080     1.977     2.199
   228   1 H        0.925     0.050     2.325     2.384
   229   1 H        0.924     0.084     1.937     2.177
   230   1 H        0.925     0.076     2.018     2.222
   231   1 H        0.924     0.073     2.049     2.239
   232   1 H        0.926     0.091     1.868     2.137
   233   1 H        0.860     0.291     0.742     1.349
   234   1 H        0.860     0.277     0.786     1.389
   235   1 H        0.926     0.115     1.655     2.012
   236  15 P        3.587     0.570   137.340    21.052
   237   8 O        0.808    -0.557    25.107     6.717
   238   8 O        0.808    -0.536    24.632     6.653
   239   8 O        1.649    -0.331    19.557     5.970
   240   6 C        3.872     0.073    19.322     6.250
   241   6 C        3.759     0.096    19.045     6.222
   242   8 O        1.698    -0.310    19.165     5.911
   243   6 C        3.886     0.122    18.543     6.122
   244   8 O        1.655    -0.357    20.041     6.043
   245   6 C        3.810    -0.090    22.205     6.707
   246   6 C        3.705     0.166    18.060     6.076
   247   7 N        2.742    -0.059    22.386     7.027
   248   6 C        2.719     0.333    21.338     7.562
   249   8 O        0.861    -0.458    22.877     6.413
   250   7 N        1.851    -0.306    28.775     7.950
   251   6 C        2.857     0.169    24.369     8.091
   252   7 N        2.651    -0.196    25.257     7.464
   253   6 C        2.901    -0.082    30.044     8.987
   254   6 C        2.875     0.046    26.962     8.512
   255   1 H        0.924     0.098     1.807     2.102
   256   1 H        0.924     0.056     2.250     2.346
   257   1 H        0.924     0.075     2.030     2.228
   258   1 H        0.925     0.048     2.342     2.393
   259   1 H        0.925     0.090     1.878     2.143
   260   1 H        0.925     0.074     2.045     2.236
   261   1 H        0.925     0.087     1.910     2.161
   262   1 H        0.860     0.282     0.769     1.374
   263   1 H        0.860     0.284     0.763     1.368
   264   1 H        0.926     0.145     1.427     1.868
   265   1 H        0.926     0.087     1.912     2.162
   266  15 P        3.609     0.521   139.121    21.188
   267   8 O        0.808    -0.553    25.024     6.706
   268   8 O        0.808    -0.548    24.902     6.689
   269   8 O        1.654    -0.346    19.825     6.011
   270   6 C        3.896     0.078    19.231     6.234
   271   6 C        3.792     0.098    18.973     6.203
   272   8 O        1.707    -0.266    18.407     5.793
   273   6 C        3.939     0.129    18.429     6.100
   274   8 O        1.655    -0.328    19.513     5.963
   275   6 C        3.807    -0.091    22.233     6.712
   276   6 C        3.737     0.153    18.194     6.087
   277   7 N        2.798    -0.051    22.224     7.002
   278   6 C        3.212     0.115    24.865     8.115
   279   7 N        1.889    -0.192    25.995     7.558
   280   6 C        3.182     0.012    27.298     8.528
   281   6 C        2.795     0.272    22.401     7.753
   282   8 O        0.875    -0.403    21.737     6.251
   283   7 N        2.745    -0.172    24.708     7.383
   284   6 C        2.866     0.219    23.390     7.928
   285   7 N        2.663    -0.216    25.718     7.532
   286   7 N        1.849    -0.218    26.597     7.643
   287   6 C        3.220     0.125    24.611     8.067
   288   1 H        0.924     0.082     1.962     2.191
   289   1 H        0.925     0.043     2.415     2.430
   290   1 H        0.924     0.079     1.986     2.204
   291   1 H        0.924     0.031     2.569     2.506
   292   1 H        0.925     0.078     2.004     2.214
   293   1 H        0.925     0.095     1.832     2.117
   294   1 H        0.924     0.124     1.583     1.968
   295   1 H        0.926     0.081     1.972     2.196
   296   1 H        0.861     0.272     0.805     1.405
   297   1 H        0.860     0.287     0.753     1.359
   298   1 H        0.860     0.285     0.761     1.366
   299  15 P        3.562     0.551   138.024    21.104
   300   8 O        0.808    -0.538    24.679     6.659
   301   8 O        0.808    -0.558    25.127     6.719
   302   8 O        1.652    -0.341    19.751     5.999
   303   6 C        3.813     0.076    19.303     6.254
   304   6 C        3.783     0.095    19.031     6.214
   305   8 O        1.700    -0.316    19.277     5.928
   306   6 C        3.744     0.111    18.828     6.190
   307   8 O        1.658    -0.444    21.730     6.293
   308   6 C        3.814    -0.095    22.301     6.721
   309   6 C        3.728     0.152    18.226     6.095
   310   7 N        2.756    -0.046    22.130     6.987
   311   6 C        2.778     0.323    21.516     7.597
   312   8 O        0.861    -0.463    22.985     6.428
   313   7 N        1.930    -0.301    28.632     7.934
   314   6 C        2.922     0.198    23.788     7.998
   315   7 N        2.746    -0.193    25.185     7.454
   316   6 C        2.936    -0.091    30.279     9.024
   317   6 C        2.871     0.046    26.959     8.511
   318   1 H        0.924     0.069     2.100     2.266
   319   1 H        0.924     0.062     2.180     2.309
   320   1 H        0.924     0.092     1.857     2.131
   321   1 H        0.924     0.049     2.327     2.386
   322   1 H        0.805     0.370     0.544     1.158
   323   1 H        0.925     0.075     2.027     2.227
   324   1 H        0.924     0.102     1.770     2.081
   325   1 H        0.925     0.119     1.619     1.990
   326   1 H        0.860     0.251     0.878     1.468
   327   1 H        0.860     0.286     0.756     1.362
   328   1 H        0.926     0.107     1.725     2.054
   329   1 H        0.926     0.095     1.833     2.117
   330   8 O        1.644    -0.442    21.697     6.288
   331   6 C        3.664     0.035    20.245     6.454
   332   6 C        3.762     0.094    19.065     6.224
   333   8 O        1.697    -0.263    18.365     5.786
   334   6 C        3.967     0.110    18.714     6.147
   335   8 O        1.655    -0.328    19.498     5.961
   336   6 C        3.800    -0.110    22.609     6.770
   337   6 C        3.699     0.131    18.598     6.168
   338   7 N        2.823    -0.003    21.312     6.856
   339   6 C        3.201     0.106    25.128     8.168
   340   7 N        1.889    -0.142    24.856     7.391
   341   6 C        3.186     0.029    26.890     8.461
   342   6 C        2.789     0.289    22.110     7.702
   343   8 O        0.861    -0.373    21.142     6.165
   344   7 N        2.727    -0.155    24.347     7.328
   345   6 C        2.924     0.237    23.054     7.874
   346   7 N        2.689    -0.211    25.599     7.514
   347   7 N        1.857    -0.223    26.720     7.662
   348   6 C        3.252     0.121    24.367     7.987
   349   1 H        0.924     0.111     1.687     2.031
   350   1 H        0.925     0.090     1.875     2.141
   351   1 H        0.925     0.088     1.901     2.156
   352   1 H        0.924     0.090     1.879     2.144
   353   1 H        0.925     0.132     1.517     1.926
   354   1 H        0.925     0.110     1.694     2.036
   355   1 H        0.925     0.139     1.468     1.895
   356   1 H        0.926     0.159     1.334     1.806
   357   1 H        0.860     0.262     0.838     1.434
   358   1 H        0.860     0.291     0.742     1.349
   359   1 H        0.860     0.278     0.783     1.387
   360   1 H        0.805     0.371     0.542     1.156
   361  15 P        3.800     0.635   134.987    20.871
   362   8 O        0.808    -0.537    24.651     6.655
   363   8 O        0.808    -0.498    23.755     6.533
   364   8 O        1.656    -0.299    18.994     5.883
   365   6 C        3.996     0.069    19.360     6.251
   366   6 C        3.789     0.093    19.064     6.219
   367   8 O        1.697    -0.289    18.802     5.854
   368   6 C        3.897     0.110    18.737     6.153
   369   8 O        1.658    -0.338    19.682     5.989
   370   6 C        3.800    -0.109    22.575     6.765
   371   6 C        3.771     0.153    18.159     6.073
   372   7 N        2.746    -0.035    21.922     6.954
   373   6 C        2.777     0.333    21.340     7.566
   374   8 O        0.879    -0.438    22.447     6.353
   375   7 N        1.854    -0.331    29.450     8.043
   376   6 C        2.871     0.156    24.628     8.135
   377   7 N        2.648    -0.182    24.948     7.418
   378   6 C        2.907    -0.088    30.194     9.010
   379   6 C        2.886     0.044    27.000     8.519
   380   1 H        0.925     0.081     1.966     2.192
   381   1 H        0.925     0.065     2.142     2.289
   382   1 H        0.924     0.079     1.991     2.207
   383   1 H        0.924     0.072     2.063     2.246
   384   1 H        0.925     0.122     1.599     1.978
   385   1 H        0.925     0.090     1.874     2.141
   386   1 H        0.924     0.104     1.747     2.067
   387   1 H        0.860     0.288     0.749     1.356
   388   1 H        0.860     0.270     0.809     1.409
   389   1 H        0.926     0.179     1.210     1.720
   390   1 H        0.926     0.134     1.505     1.918
   391  15 P        3.546     0.594   136.466    20.985
   392   8 O        0.808    -0.543    24.783     6.673
   393   8 O        0.808    -0.495    23.699     6.526
   394   8 O        1.653    -0.307    19.133     5.905
   395   6 C        3.832     0.061    19.540     6.289
   396   6 C        3.837     0.081    19.216     6.236
   397   8 O        1.700    -0.258    18.279     5.772
   398   6 C        4.071     0.127    18.448     6.101
   399   8 O        1.659    -0.314    19.249     5.923
   400   6 C        3.822    -0.108    22.542     6.757
   401   6 C        3.802     0.152    18.140     6.064
   402   7 N        2.839    -0.003    21.325     6.859
   403   6 C        3.250     0.102    24.780     8.058
   404   7 N        1.900    -0.188    25.893     7.544
   405   6 C        3.179    -0.005    27.710     8.594
   406   6 C        2.792     0.261    22.605     7.788
   407   8 O        0.864    -0.374    21.162     6.168
   408   7 N        2.754    -0.140    24.032     7.281
   409   6 C        2.876     0.235    23.096     7.878
   410   7 N        2.678    -0.228    25.979     7.570
   411   7 N        1.844    -0.226    26.785     7.670
   412   6 C        3.263     0.124    24.193     7.943
   413   1 H        0.924     0.107     1.719     2.051
   414   1 H        0.924     0.071     2.076     2.253
   415   1 H        0.924     0.103     1.754     2.071
   416   1 H        0.924     0.051     2.309     2.376
   417   1 H        0.925     0.107     1.726     2.054
   418   1 H        0.925     0.096     1.819     2.109
   419   1 H        0.924     0.112     1.683     2.029
   420   1 H        0.926     0.113     1.669     2.020
   421   1 H        0.860     0.267     0.819     1.418
   422   1 H        0.860     0.275     0.794     1.396
   423   1 H        0.861     0.275     0.793     1.395
   424  15 P        3.725     0.604   136.105    20.957
   425   8 O        0.808    -0.543    24.776     6.672
   426   8 O        0.808    -0.523    24.333     6.612
   427   8 O        1.659    -0.312    19.214     5.917
   428   6 C        3.866     0.078    19.242     6.238
   429   6 C        3.763     0.091    19.110     6.231
   430   8 O        1.698    -0.289    18.804     5.855
   431   6 C        4.045     0.113    18.654     6.135
   432   8 O        1.654    -0.340    19.719     5.995
   433   6 C        3.805    -0.095    22.309     6.724
   434   6 C        3.689     0.144    18.425     6.143
   435   7 N        2.737    -0.034    21.910     6.952
   436   6 C        2.696     0.319    21.579     7.603
   437   8 O        0.860    -0.418    22.039     6.294
   438   7 N        2.712    -0.183    24.971     7.422
   439   6 C        2.759     0.263    22.565     7.779
   440   8 O        0.858    -0.318    20.109     6.012
   441   6 C        2.965     0.002    27.978     8.676
   442   6 C        3.774    -0.168    23.797     6.951
   443   6 C        2.861     0.020    27.565     8.606
   444   1 H        0.925     0.082     1.960     2.189
   445   1 H        0.924     0.043     2.405     2.425
   446   1 H        0.924     0.072     2.065     2.247
   447   1 H        0.924     0.057     2.233     2.337
   448   1 H        0.925     0.104     1.749     2.068
   449   1 H        0.925     0.088     1.895     2.153
   450   1 H        0.924     0.104     1.750     2.069
   451   1 H        0.860     0.262     0.838     1.434
   452   1 H        0.925     0.185     1.180     1.699
   453   1 H        0.924     0.102     1.767     2.079
   454   1 H        0.924     0.213     1.033     1.589
   455   1 H        0.926     0.132     1.520     1.928
   456  15 P        3.738     0.601   136.225    20.966
   457   8 O        0.808    -0.559    25.164     6.724
   458   8 O        0.808    -0.524    24.355     6.615
   459   8 O        1.658    -0.329    19.527     5.965
   460   6 C        3.858     0.084    19.157     6.225
   461   6 C        3.835     0.104    18.849     6.177
   462   8 O        1.707    -0.291    18.834     5.859
   463   6 C        3.975     0.129    18.430     6.100
   464   8 O        1.661    -0.348    19.864     6.017
   465   6 C        3.830    -0.106    22.501     6.749
   466   6 C        3.786     0.156    18.098     6.059
   467   7 N        2.877    -0.017    21.581     6.900
   468   6 C        3.082     0.103    25.640     8.301
   469   7 N        1.897    -0.149    25.010     7.414
   470   6 C        3.180     0.003    27.529     8.565
   471   6 C        2.766     0.275    22.347     7.742
   472   8 O        0.866    -0.304    19.858     5.975
   473   7 N        2.721    -0.163    24.516     7.354
   474   6 C        2.836     0.215    23.463     7.938
   475   7 N        2.673    -0.198    25.291     7.469
   476   7 N        1.851    -0.239    27.103     7.716
   477   6 C        3.039     0.110    25.548     8.290
[...]
   415   1 H    0.985 --   396 C    0.948
   416   1 H    0.995 --   398 C    0.957
   417   1 H    0.987 --   400 C    0.955
   418   1 H    0.990 --   400 C    0.961
   419   1 H    0.971 --   401 C    0.933
   420   1 H    0.985 --   403 C    0.937
   421   1 H    0.928 --   408 N    0.850
   422   1 H    0.923 --   410 N    0.907
   423   1 H    0.924 --   410 N    0.851
   424  15 P    5.633 --   426 O    1.684   425 O    1.626   399 O    1.136
                           427 O    1.133
   425   8 O    1.785 --   424 P    1.626
   426   8 O    1.852 --   424 P    1.684
   427   8 O    2.284 --   424 P    1.133   428 C    0.951
   428   6 C    3.921 --   445 H    0.970   429 C    0.967   444 H    0.963
                           427 O    0.951
   429   6 C    3.949 --   430 O    0.996   428 C    0.967   431 C    0.964
                           446 H    0.953
   430   8 O    2.065 --   429 C    0.996   434 C    0.945
   431   6 C    3.904 --   433 C    0.965   429 C    0.964   447 H    0.960
                           432 O    0.929
   432   8 O    2.244 --   456 P    1.115   431 C    0.929
   433   6 C    3.965 --   434 C    0.989   431 C    0.965   449 H    0.964
                           448 H    0.961
   434   6 C    3.918 --   433 C    0.989   435 N    0.955   450 H    0.951
                           430 O    0.945
   435   7 N    3.533 --   443 C    1.183   436 C    1.119   434 C    0.955
                           437 O    0.105
   436   6 C    3.955 --   437 O    1.646   438 N    1.122   435 N    1.119
   437   8 O    1.970 --   436 C    1.646   438 N    0.137   435 N    0.105
   438   7 N    3.504 --   439 C    1.138   436 C    1.122   451 H    0.860
                           440 O    0.152   437 O    0.137
   439   6 C    3.953 --   440 O    1.675   438 N    1.138   441 C    1.057
   440   8 O    2.027 --   439 C    1.675   438 N    0.152
   441   6 C    3.861 --   443 C    1.528   442 C    1.093   439 C    1.057
   442   6 C    3.859 --   441 C    1.093   453 H    0.971   452 H    0.874
                           454 H    0.855
   443   6 C    3.836 --   441 C    1.528   435 N    1.183   455 H    0.939
   444   1 H    0.988 --   428 C    0.963
   445   1 H    0.996 --   428 C    0.970
   446   1 H    0.991 --   429 C    0.953
   447   1 H    0.993 --   431 C    0.960
   448   1 H    0.989 --   433 C    0.961
   449   1 H    0.992 --   433 C    0.964
   450   1 H    0.987 --   434 C    0.951
   451   1 H    0.930 --   438 N    0.860
   452   1 H    0.918 --   442 C    0.874
   453   1 H    0.987 --   442 C    0.971
   454   1 H    0.901 --   442 C    0.855
   455   1 H    0.981 --   443 C    0.939
   456  15 P    5.639 --   458 O    1.753   457 O    1.647   432 O    1.115
                           459 O    1.078
   457   8 O    1.823 --   456 P    1.647
   458   8 O    1.934 --   456 P    1.753
   459   8 O    2.222 --   456 P    1.078   460 C    0.956
   460   6 C    3.918 --   479 H    0.970   461 C    0.962   478 H    0.958
                           459 O    0.956
   461   6 C    3.947 --   462 O    0.996   463 C    0.971   460 C    0.962
                           480 H    0.948
   462   8 O    2.079 --   461 C    0.996   466 C    0.951
   463   6 C    3.917 --   461 C    0.971   464 O    0.961   465 C    0.959
                           481 H    0.954
   464   8 O    2.236 --   489 P    1.064   463 C    0.961
   465   6 C    3.971 --   466 C    0.990   482 H    0.965   483 H    0.962
                           463 C    0.959
   466   6 C    3.927 --   465 C    0.990   467 N    0.964   462 O    0.951
                           484 H    0.944
   467   7 N    3.621 --   468 C    1.272   477 C    1.146   466 C    0.964
   468   6 C    3.840 --   469 N    1.504   467 N    1.272   485 H    0.946
   469   7 N    2.982 --   468 C    1.504   470 C    1.287
   470   6 C    3.786 --   469 N    1.287   477 C    1.241   471 C    1.041
   471   6 C    3.953 --   472 O    1.677   473 N    1.156   470 C    1.041
   472   8 O    2.034 --   471 C    1.677   473 N    0.138
   473   7 N    3.509 --   474 C    1.173   471 C    1.156   486 H    0.823
                           472 O    0.138
   474   6 C    3.954 --   475 N    1.430   476 N    1.279   473 N    1.173
   475   7 N    3.399 --   474 C    1.430   487 H    0.896   488 H    0.846
   476   7 N    2.818 --   477 C    1.297   474 C    1.279
   477   6 C    3.864 --   476 N    1.297   470 C    1.241   467 N    1.146
   478   1 H    0.982 --   460 C    0.958
   479   1 H    0.995 --   460 C    0.970
   480   1 H    0.993 --   461 C    0.948
   481   1 H    0.992 --   463 C    0.954
   482   1 H    0.989 --   465 C    0.965
   483   1 H    0.991 --   465 C    0.962
   484   1 H    0.983 --   466 C    0.944
   485   1 H    0.986 --   468 C    0.946
   486   1 H    0.927 --   473 N    0.823
   487   1 H    0.916 --   475 N    0.896
   488   1 H    0.919 --   475 N    0.846
   489  15 P    5.656 --   491 O    1.747   490 O    1.697   492 O    1.100
                           464 O    1.064
   490   8 O    1.872 --   489 P    1.697
   491   8 O    1.934 --   489 P    1.747
   492   8 O    2.229 --   489 P    1.100   493 C    0.936
   493   6 C    3.919 --   494 C    0.980   512 H    0.969   511 H    0.963
                           492 O    0.936
   494   6 C    3.949 --   495 O    1.004   493 C    0.980   496 C    0.957
                           513 H    0.940
   495   8 O    2.080 --   494 C    1.004   499 C    0.943
   496   6 C    3.917 --   498 C    0.984   514 H    0.965   494 C    0.957
                           497 O    0.923
   497   8 O    2.267 --   522 P    1.134   496 C    0.923
   498   6 C    3.978 --   499 C    0.997   496 C    0.984   515 H    0.961
                           516 H    0.959
   499   6 C    3.914 --   498 C    0.997   500 N    0.954   495 O    0.943
                           517 H    0.942
   500   7 N    3.620 --   501 C    1.265   510 C    1.143   499 C    0.954
   501   6 C    3.858 --   502 N    1.532   500 N    1.265   518 H    0.946
   502   7 N    2.971 --   501 C    1.532   503 C    1.225
   503   6 C    3.834 --   510 C    1.288   502 N    1.225   504 C    1.106
   504   6 C    3.965 --   505 O    1.655   506 N    1.123   503 C    1.106
   505   8 O    1.956 --   504 C    1.655   506 N    0.129
   506   7 N    3.520 --   507 C    1.202   504 C    1.123   519 H    0.869
                           505 O    0.129
   507   6 C    3.954 --   508 N    1.372   509 N    1.307   506 N    1.202
   508   7 N    3.387 --   507 C    1.372   520 H    0.901   521 H    0.899
   509   7 N    2.856 --   507 C    1.307   510 C    1.273
   510   6 C    3.883 --   503 C    1.288   509 N    1.273   500 N    1.143
   511   1 H    0.991 --   493 C    0.963
   512   1 H    0.994 --   493 C    0.969
   513   1 H    0.984 --   494 C    0.940
   514   1 H    0.996 --   496 C    0.965
   515   1 H    0.989 --   498 C    0.961
   516   1 H    0.991 --   498 C    0.959
   517   1 H    0.976 --   499 C    0.942
   518   1 H    0.986 --   501 C    0.946
   519   1 H    0.909 --   506 N    0.869
   520   1 H    0.918 --   508 N    0.901
   521   1 H    0.922 --   508 N    0.899
   522  15 P    5.640 --   524 O    1.665   523 O    1.600   525 O    1.191
                           497 O    1.134
   523   8 O    1.762 --   522 P    1.600
   524   8 O    1.831 --   522 P    1.665
   525   8 O    2.308 --   522 P    1.191   526 C    0.917
   526   6 C    3.911 --   527 C    0.982   545 H    0.970   544 H    0.963
                           525 O    0.917
   527   6 C    3.948 --   528 O    0.989   526 C    0.982   529 C    0.951
                           546 H    0.946
   528   8 O    2.091 --   527 C    0.989   532 C    0.954
   529   6 C    3.926 --   531 C    0.979   547 H    0.962   530 O    0.957
                           527 C    0.951
   530   8 O    2.226 --   555 P    1.057   529 C    0.957
   531   6 C    3.980 --   529 C    0.979   532 C    0.978   549 H    0.964
                           548 H    0.963
   532   6 C    3.921 --   533 N    0.982   531 C    0.978   528 O    0.954
                           550 H    0.941
   533   7 N    3.624 --   534 C    1.256   543 C    1.140   532 C    0.982
   534   6 C    3.851 --   535 N    1.517   533 N    1.256   551 H    0.949
   535   7 N    2.960 --   534 C    1.517   536 C    1.248
   536   6 C    3.813 --   535 N    1.248   543 C    1.241   537 C    1.120
   537   6 C    3.954 --   538 O    1.693   536 C    1.120   539 N    1.060
   538   8 O    2.025 --   537 C    1.693   539 N    0.140
   539   7 N    3.485 --   540 C    1.213   537 C    1.060   552 H    0.830
                           538 O    0.140
   540   6 C    3.956 --   541 N    1.404   542 N    1.271   539 N    1.213
   541   7 N    3.381 --   540 C    1.404   553 H    0.896   554 H    0.846
   542   7 N    2.846 --   543 C    1.324   540 C    1.271
   543   6 C    3.887 --   542 N    1.324   536 C    1.241   533 N    1.140
   544   1 H    0.989 --   526 C    0.963
   545   1 H    0.996 --   526 C    0.970
   546   1 H    0.988 --   527 C    0.946
   547   1 H    0.995 --   529 C    0.962
   548   1 H    0.991 --   531 C    0.963
   549   1 H    0.993 --   531 C    0.964
   550   1 H    0.982 --   532 C    0.941
   551   1 H    0.988 --   534 C    0.949
   552   1 H    0.920 --   539 N    0.830
   553   1 H    0.913 --   541 N    0.896
   554   1 H    0.910 --   541 N    0.846
   555  15 P    5.657 --   557 O    1.697   556 O    1.655   558 O    1.190
                           530 O    1.057
   556   8 O    1.828 --   555 P    1.655
   557   8 O    1.869 --   555 P    1.697
   558   8 O    2.315 --   555 P    1.190   559 C    0.922
   559   6 C    3.912 --   560 C    0.988   577 H    0.969   576 H    0.956
                           558 O    0.922
   560   6 C    3.957 --   559 C    0.988   561 O    0.987   562 C    0.959
                           578 H    0.948
   561   8 O    2.079 --   560 C    0.987   565 C    0.954
   562   6 C    3.924 --   564 C    0.997   579 H    0.963   560 C    0.959
                           563 O    0.913
   563   8 O    2.267 --   587 P    1.148   562 C    0.913
   564   6 C    3.984 --   562 C    0.997   565 C    0.995   581 H    0.960
                           580 H    0.959
   565   6 C    3.927 --   564 C    0.995   561 O    0.954   566 N    0.953
                           582 H    0.947
   566   7 N    3.616 --   567 C    1.257   575 C    1.150   565 C    0.953
                           568 N    0.102
   567   6 C    3.932 --   568 N    1.545   566 N    1.257   583 H    0.954
   568   7 N    3.000 --   567 C    1.545   569 C    1.215   566 N    0.102
   569   6 C    3.915 --   575 C    1.330   568 N    1.215   570 C    1.167
   570   6 C    3.969 --   571 N    1.398   572 N    1.253   569 C    1.167
   571   7 N    3.445 --   570 C    1.398   584 H    0.908   585 H    0.854
   572   7 N    3.002 --   573 C    1.406   570 C    1.253
   573   6 C    3.924 --   574 N    1.477   572 N    1.406   586 H    0.930
   574   7 N    2.954 --   573 C    1.477   575 C    1.203
   575   6 C    3.918 --   569 C    1.330   574 N    1.203   566 N    1.150
   576   1 H    0.990 --   559 C    0.956
   577   1 H    0.996 --   559 C    0.969
   578   1 H    0.989 --   560 C    0.948
   579   1 H    0.996 --   562 C    0.963
   580   1 H    0.993 --   564 C    0.959
   581   1 H    0.992 --   564 C    0.960
   582   1 H    0.989 --   565 C    0.947
   583   1 H    0.992 --   567 C    0.954
   584   1 H    0.925 --   571 N    0.908
   585   1 H    0.917 --   571 N    0.854
   586   1 H    0.977 --   573 C    0.930
   587  15 P    5.652 --   589 O    1.732   588 O    1.652   563 O    1.148
                           590 O    1.072
   588   8 O    1.844 --   587 P    1.652
   589   8 O    1.925 --   587 P    1.732
   590   8 O    2.218 --   587 P    1.072   591 C    0.948
   591   6 C    3.920 --   592 C    0.984   611 H    0.966   610 H    0.958
                           590 O    0.948
   592   6 C    3.944 --   593 O    0.993   591 C    0.984   612 H    0.943
                           594 C    0.941
   593   8 O    2.084 --   592 C    0.993   597 C    0.965
   594   6 C    3.930 --   596 C    0.979   613 H    0.966   595 O    0.958
                           592 C    0.941
   595   8 O    2.240 --   621 P    1.059   594 C    0.958
   596   6 C    3.977 --   597 C    0.986   594 C    0.979   615 H    0.969
                           614 H    0.962
   597   6 C    3.913 --   596 C    0.986   593 O    0.965   598 N    0.944
                           616 H    0.943
   598   7 N    3.527 --   608 C    1.144   599 C    1.089   597 C    0.944
                           609 O    0.106
   599   6 C    3.948 --   609 O    1.581   600 N    1.218   598 N    1.089
   600   7 N    3.472 --   599 C    1.218   601 C    1.152   617 H    0.866
   601   6 C    3.759 --   608 C    1.296   600 N    1.152   602 C    1.100
   602   6 C    3.956 --   603 O    1.673   601 C    1.100   604 N    1.093
   603   8 O    2.006 --   602 C    1.673   604 N    0.152
   604   7 N    3.500 --   605 C    1.185   602 C    1.093   618 H    0.831
                           603 O    0.152
   605   6 C    3.962 --   606 N    1.422   607 N    1.294   604 N    1.185
   606   7 N    3.406 --   605 C    1.422   619 H    0.896   620 H    0.845
   607   7 N    2.914 --   608 C    1.309   605 C    1.294
   608   6 C    3.924 --   607 N    1.309   601 C    1.296   598 N    1.144
   609   8 O    1.863 --   599 C    1.581   598 N    0.106
   610   1 H    0.992 --   591 C    0.958
   611   1 H    0.992 --   591 C    0.966
   612   1 H    0.982 --   592 C    0.943
   613   1 H    0.998 --   594 C    0.966
   614   1 H    0.993 --   596 C    0.962
   615   1 H    0.991 --   596 C    0.969
   616   1 H    0.980 --   597 C    0.943
   617   1 H    0.899 --   600 N    0.866
   618   1 H    0.923 --   604 N    0.831
   619   1 H    0.918 --   606 N    0.896
   620   1 H    0.914 --   606 N    0.845
   621  15 P    5.609 --   622 O    1.690   623 O    1.665   624 O    1.134
                           595 O    1.059
   622   8 O    1.881 --   621 P    1.690
   623   8 O    1.852 --   621 P    1.665
   624   8 O    2.282 --   621 P    1.134   625 C    0.953
   625   6 C    3.878 --   640 H    0.959   641 H    0.958   624 O    0.953
                           626 C    0.935
   626   6 C    3.920 --   627 O    1.010   628 C    0.964   642 H    0.936
                           625 C    0.935
   627   8 O    2.086 --   626 C    1.010   631 C    0.951
   628   6 C    3.921 --   630 C    0.980   626 C    0.964   643 H    0.962
                           629 O    0.933
   629   8 O    2.244 --   651 P    1.096   628 C    0.933
   630   6 C    3.977 --   631 C    1.000   628 C    0.980   645 H    0.961
                           644 H    0.959
   631   6 C    3.902 --   630 C    1.000   632 N    0.952   627 O    0.951
                           646 H    0.924
   632   7 N    3.512 --   639 C    1.212   633 C    1.035   631 C    0.952
                           634 O    0.103
   633   6 C    3.946 --   634 O    1.564   635 N    1.265   632 N    1.035
   634   8 O    1.940 --   633 C    1.564   635 N    0.121   632 N    0.103
   635   7 N    3.045 --   636 C    1.320   633 C    1.265   634 O    0.121
                           637 N    0.102
   636   6 C    3.973 --   637 N    1.425   635 N    1.320   638 C    1.132
   637   7 N    3.470 --   636 C    1.425   647 H    0.915   648 H    0.843
                           635 N    0.102
   638   6 C    3.922 --   639 C    1.637   636 C    1.132   649 H    0.956
   639   6 C    3.945 --   638 C    1.637   632 N    1.212   650 H    0.950
   640   1 H    0.989 --   625 C    0.959
   641   1 H    0.987 --   625 C    0.958
   642   1 H    0.976 --   626 C    0.936
   643   1 H    0.996 --   628 C    0.962
   644   1 H    0.989 --   630 C    0.959
   645   1 H    0.991 --   630 C    0.961
   646   1 H    0.963 --   631 C    0.924
   647   1 H    0.938 --   637 N    0.915
   648   1 H    0.919 --   637 N    0.843
   649   1 H    0.988 --   638 C    0.956
   650   1 H    0.987 --   639 C    0.950
   651  15 P    5.624 --   652 O    1.704   653 O    1.639   654 O    1.134
                           629 O    1.096
   652   8 O    1.877 --   651 P    1.704
   653   8 O    1.820 --   651 P    1.639
   654   8 O    2.248 --   651 P    1.134   655 C    0.926
   655   6 C    3.904 --   656 C    0.986   674 H    0.966   673 H    0.959
                           654 O    0.926
   656   6 C    3.929 --   655 C    0.986   658 C    0.966   657 O    0.953
                           675 H    0.944
   657   8 O    2.074 --   661 C    0.989   656 C    0.953
   658   6 C    3.945 --   659 O    1.016   660 C    0.971   656 C    0.966
                           676 H    0.951
   659   8 O    1.926 --   658 C    1.016   677 H    0.846
   660   6 C    3.952 --   658 C    0.971   678 H    0.968   679 H    0.967
                           661 C    0.965
   661   6 C    3.914 --   657 O    0.989   660 C    0.965   662 N    0.962
                           680 H    0.932
   662   7 N    3.622 --   663 C    1.213   672 C    1.189   661 C    0.962
   663   6 C    3.860 --   664 N    1.576   662 N    1.213   681 H    0.951
   664   7 N    2.978 --   663 C    1.576   665 C    1.210
   665   6 C    3.789 --   672 C    1.282   664 N    1.210   666 C    1.085
   666   6 C    3.947 --   667 O    1.663   668 N    1.120   665 C    1.085
   667   8 O    1.981 --   666 C    1.663   668 N    0.132
   668   7 N    3.521 --   669 C    1.198   666 C    1.120   682 H    0.850
                           667 O    0.132
   669   6 C    3.958 --   670 N    1.376   671 N    1.316   668 N    1.198
   670   7 N    3.355 --   669 C    1.376   683 H    0.892   684 H    0.875
   671   7 N    2.834 --   669 C    1.316   672 C    1.277
   672   6 C    3.912 --   665 C    1.282   671 N    1.277   662 N    1.189
   673   1 H    0.986 --   655 C    0.959
   674   1 H    0.990 --   655 C    0.966
   675   1 H    0.980 --   656 C    0.944
   676   1 H    0.985 --   658 C    0.951
   677   1 H    0.863 --   659 O    0.846
   678   1 H    0.994 --   660 C    0.968
   679   1 H    0.989 --   660 C    0.967
   680   1 H    0.974 --   661 C    0.932
   681   1 H    0.989 --   663 C    0.951
   682   1 H    0.926 --   668 N    0.850
   683   1 H    0.910 --   670 N    0.892
   684   1 H    0.927 --   670 N    0.875
 ---------------------------------------------------------------------------

Topologies differ in total number of bonds
Writing topology from bond orders to xtbtopo.mol

molecular dipole:
                 x           y           z       tot (Debye)
 q only:      -10.306      11.787      34.735
   full:       -9.551       9.904      30.916      86.012
molecular quadrupole (traceless):
                xx          xy          yy          xz          yz          zz
 q only:    -1847.177    1976.512     768.217      52.128    1460.792    1078.960
  q+dip:    -1684.094    1828.490     817.138      -9.410    1217.082     866.956
   full:    -1690.966    1848.935     841.315     -16.718    1204.608     849.651


           -------------------------------------------------
          | TOTAL ENERGY            -1389.205778065623 Eh   |
          | GRADIENT NORM               0.833703499737 Eh/α |
          | HOMO-LUMO GAP               0.003359150774 eV   |
           -------------------------------------------------

------------------------------------------------------------------------
 * finished run on 2023/03/20 at 21:05:01.746     
------------------------------------------------------------------------
 total:
 * wall-time:     0 d,  0 h,  0 min, 40.739 sec
 *  cpu-time:     0 d,  0 h,  6 min, 40.651 sec
 * ratio c/w:     9.835 speedup
 SCF:
 * wall-time:     0 d,  0 h,  0 min, 39.904 sec
 *  cpu-time:     0 d,  0 h,  6 min, 34.455 sec
 * ratio c/w:     9.885 speedup

