      -----------------------------------------------------------      
     |                   =====================                   |     
     |                           x T B                           |     
     |                   =====================                   |     
     |                         S. Grimme                         |     
     |          Mulliken Center for Theoretical Chemistry        |     
     |                    University of Bonn                     |     
      -----------------------------------------------------------      

   * xtb version 6.5.1 (579679a) compiled by 'ehlert@majestix' on 2022-07-11

   xtb is free software: you can redistribute it and/or modify it under
   the terms of the GNU Lesser General Public License as published by
   the Free Software Foundation, either version 3 of the License, or
   (at your option) any later version.
   
   xtb is distributed in the hope that it will be useful,
   but WITHOUT ANY WARRANTY; without even the implied warranty of
   MERCHANTABILITY or FITNESS FOR A PARTICULAR PURPOSE.  See the
   GNU Lesser General Public License for more details.
   
   Cite this work as:
   * C. Bannwarth, E. Caldeweyher, S. Ehlert, A. Hansen, P. Pracht,
     J. Seibert, S. Spicher, S. Grimme, WIREs Comput. Mol. Sci., 2020, 11,
     e01493. DOI: 10.1002/wcms.1493
   
   for GFN2-xTB:
   * C. Bannwarth, S. Ehlert and S. Grimme., J. Chem. Theory Comput., 2019,
     15, 1652-1671. DOI: 10.1021/acs.jctc.8b01176
   for GFN1-xTB:
   * S. Grimme, C. Bannwarth, P. Shushkov, J. Chem. Theory Comput., 2017,
     13, 1989-2009. DOI: 10.1021/acs.jctc.7b00118
   for GFN0-xTB:
   * P. Pracht, E. Caldeweyher, S. Ehlert, S. Grimme, ChemRxiv, 2019, preprint.
     DOI: 10.26434/chemrxiv.8326202.v1
   for GFN-FF:
   * S. Spicher and S. Grimme, Angew. Chem. Int. Ed., 2020, 59, 15665-15673.
     DOI: 10.1002/anie.202004239
   
   for ALPB and GBSA implicit solvation:
   * S. Ehlert, M. Stahn, S. Spicher, S. Grimme, J. Chem. Theory Comput.,
     2021, 17, 4250-4261. DOI: 10.1021/acs.jctc.1c00471
   
   for DFT-D4:
   * E. Caldeweyher, C. Bannwarth and S. Grimme, J. Chem. Phys., 2017,
     147, 034112. DOI: 10.1063/1.4993215
   * E. Caldeweyher, S. Ehlert, A. Hansen, H. Neugebauer, S. Spicher,
     C. Bannwarth and S. Grimme, J. Chem. Phys., 2019, 150, 154122.
     DOI: 10.1063/1.5090222
   * E. Caldeweyher, J.-M. Mewes, S. Ehlert and S. Grimme, Phys. Chem. Chem. Phys.
     2020, 22, 8499-8512. DOI: 10.1039/D0CP00502A
   
   for sTDA-xTB:
   * S. Grimme and C. Bannwarth, J. Chem. Phys., 2016, 145, 054103.
     DOI: 10.1063/1.4959605
   
   in the mass-spec context:
   * V. Asgeirsson, C. Bauer and S. Grimme, Chem. Sci., 2017, 8, 4879.
     DOI: 10.1039/c7sc00601b
   * J. Koopman and S. Grimme, ACS Omega 2019, 4, 12, 15120-15133.
     DOI: 10.1021/acsomega.9b02011
   
   for metadynamics refer to:
   * S. Grimme, J. Chem. Theory Comput., 2019, 155, 2847-2862
     DOI: 10.1021/acs.jctc.9b00143
   
   for SPH calculations refer to:
   * S. Spicher and S. Grimme, J. Chem. Theory Comput., 2021, 17, 1701-1714
     DOI: 10.1021/acs.jctc.0c01306
   
   with help from (in alphabetical order)
   P. Atkinson, C. Bannwarth, F. Bohle, G. Brandenburg, E. Caldeweyher
   M. Checinski, S. Dohm, S. Ehlert, S. Ehrlich, I. Gerasimov, C. Hölzer
   A. Katbashev, J. Koopman, C. Lavigne, S. Lehtola, F. März, M. Müller,
   F. Musil, H. Neugebauer, J. Pisarek, C. Plett, P. Pracht, F. Pultar,
   J. Seibert, P. Shushkov, S. Spicher, M. Stahn, M. Steiner, T. Strunk,
   J. Stückrath, T. Rose, and J. Unsleber
   
 * started run on 2023/04/12 at 14:25:53.299     

           -------------------------------------------------
          |                Calculation Setup                |
           -------------------------------------------------

          program call               : /N/u/schandy/BigRed3/bin/xtb-6.5.1/bin/xtb 6dm7_min.xyz --alpb water
          hostname                   : nid00026
          coordinate file            : 6dm7_min.xyz
          omp threads                :                    10

   ID    Z sym.   atoms
    1    8 O      1, 4, 6, 14, 33-35, 38, 40, 48, 66-68, 71, 73, 81, 99-101,
                  104, 106, 114, 132-134, 137, 139, 144, 162-164, 167, 169,
                  177, 195-197, 200, 202, 210, 228-230, 233, 235, 243,
                  261-263, 266, 268, 276, 294, 297, 299, 304, 323-325, 328,
                  330, 335, 353-355, 358, 360, 365, 383-385, 388, 390, 395,
                  413-415, 418, 420, 428, 446-448, 451, 453, 458, 476-478,
                  481, 483, 488, 506-508, 511, 513, 518, 536-538, 541, 543,
                  548
    2    6 C      2, 3, 5, 7, 8, 10, 12, 13, 16, 19, 36, 37, 39, 41, 42, 44,
                  46, 47, 50, 53, 69, 70, 72, 74, 75, 77, 79, 80, 83, 86,
                  102, 103, 105, 107, 108, 110, 112, 113, 116, 119, 135, 136,
                  138, 140, 141, 143, 146, 148, 149, 165, 166, 168, 170, 171,
                  173, 175, 176, 179, 182, 198, 199, 201, 203, 204, 206, 208,
                  209, 212, 215, 231, 232, 234, 236, 237, 239, 241, 242, 245,
                  248, 264, 265, 267, 269, 270, 272, 274, 275, 278, 281, 295,
                  296, 298, 300, 301, 303, 306, 308, 309, 326, 327, 329, 331,
                  332, 334, 337, 339, 340, 356, 357, 359, 361, 362, 364, 367,
                  369, 370, 386, 387, 389, 391, 392, 394, 397, 399, 400, 416,
                  417, 419, 421, 422, 424, 426, 427, 430, 433, 449, 450, 452,
                  454, 455, 457, 460, 462, 463, 479, 480, 482, 484, 485, 487,
                  490, 492, 493, 509, 510, 512, 514, 515, 517, 520, 522, 523,
                  539, 540, 542, 544, 545, 547, 550, 552, 553
    3    7 N      9, 11, 15, 17, 18, 43, 45, 49, 51, 52, 76, 78, 82, 84, 85,
                  109, 111, 115, 117, 118, 142, 145, 147, 172, 174, 178, 180,
                  181, 205, 207, 211, 213, 214, 238, 240, 244, 246, 247, 271,
                  273, 277, 279, 280, 302, 305, 307, 333, 336, 338, 363, 366,
                  368, 393, 396, 398, 423, 425, 429, 431, 432, 456, 459, 461,
                  486, 489, 491, 516, 519, 521, 546, 549, 551
    4    1 H      20-31, 54-64, 87-97, 120-130, 150-160, 183-193, 216-226,
                  249-259, 282-293, 310-321, 341-351, 371-381, 401-411,
                  434-444, 464-474, 494-504, 524-534, 554-565
    5   15 P      32, 65, 98, 131, 161, 194, 227, 260, 322, 352, 382, 412,
                  445, 475, 505, 535

molecular fragmentation (1/2 indicates fragments):
111111111111111111111111111111111111111111111111111111111111111111111111
111111111111111111111111111111111111111111111111111111111111111111111111
111111111111111111111111111111111111111111111111111111111111111111111111
111111111111111111111111111111111111111111111111111111111111111111111111
111112222222222222222222222222222222222222222222222222222222222222222222
222222222222222222222222222222222222222222222222222222222222222222222222
222222222222222222222222222222222222222222222222222222222222222222222222
2222222222222222222222222222222222222222222222222222222222222
# atoms in fragment 1/2:   293   272
 fragment masses (1/2) :     2852.80     2572.64
CMA distance (Bohr)    :   6.351
constraining FC (au)   :  0.0500

           -------------------------------------------------
          |                 G F N 2 - x T B                 |
           -------------------------------------------------

        Reference                      10.1021/acs.jctc.8b01176
      * Hamiltonian:
        H0-scaling (s, p, d)           1.850000    2.230000    2.230000
        zeta-weighting                 0.500000
      * Dispersion:
        s8                             2.700000
        a1                             0.520000
        a2                             5.000000
        s9                             5.000000
      * Repulsion:
        kExp                           1.500000    1.000000
        rExp                           1.000000
      * Coulomb:
        alpha                          2.000000
        third order                    shell-resolved
        anisotropic                    true
        a3                             3.000000
        a5                             4.000000
        cn-shift                       1.200000
        cn-exp                         4.000000
        max-rad                        5.000000

      * Solvation model:               ALPB
        Solvent                        water
        Parameter file                 internal GFN2-xTB/ALPB
        Dielectric constant                8.0200E+01
        Reference state                gsolv [1 M gas/solution]
        Free energy shift                  1.0808E-03 Eh       6.7819E-01 kcal/mol
        Temperature                        2.9815E+02 K
        Density                            1.0000E+00 kg/L
        Solvent mass                       1.8000E+01 g/mol
        Interaction kernel             P16
        Born radius scaling (c1)           1.4744E+00
        Born radii integrator          GBOBC
        Born offset                        0.0000E+00 a0       0.0000E+00 AA
        H-bond correction              true
        Ion screening                  false
        Surface tension                    1.0000E-05 Eh       1.5569E+01 dyn/cm
        Grid points                               230 per atom

          ...................................................
          :                      SETUP                      :
          :.................................................:
          :  # basis functions                1750          :
          :  # atomic orbitals                1734          :
          :  # shells                          944          :
          :  # electrons                      1950          :
          :  max. iterations                   250          :
          :  Hamiltonian                  GFN2-xTB          :
          :  restarted?                      false          :
          :  GBSA solvation                   true          :
          :  PC potential                    false          :
          :  electronic temp.          300.0000000     K    :
          :  accuracy                    1.0000000          :
          :  -> integral cutoff          0.2500000E+02      :
          :  -> integral neglect         0.1000000E-07      :
          :  -> SCF convergence          0.1000000E-05 Eh   :
          :  -> wf. convergence          0.1000000E-03 e    :
          :  Broyden damping             0.4000000          :
          ...................................................

 iter      E             dE          RMSdq      gap      omega  full diag
   1  -1151.1157110 -0.115112E+04  0.656E+00    0.02       0.0  T
   2  -1154.3896135 -0.327390E+01  0.407E+00    0.04       1.0  T
   3  -1154.9799534 -0.590340E+00  0.249E+00    0.00       1.0  T
   4  -1155.0665430 -0.865896E-01  0.201E+00    0.02       1.0  T
   5  -1155.9544525 -0.887909E+00  0.161E+00    0.00       1.0  T
   6  -1155.1003649  0.854088E+00  0.161E+00    0.02       1.0  T
   7  -1155.8658404 -0.765475E+00  0.137E+00    0.00       1.0  T
   8  -1156.2535127 -0.387672E+00  0.121E+00    0.00       1.0  T
   9  -1156.2133976  0.401152E-01  0.117E+00    0.01       1.0  T
  10  -1156.8473950 -0.633997E+00  0.890E-01    0.00       1.0  T
  11  -1156.7440607  0.103334E+00  0.951E-01    0.00       1.0  T
  12  -1156.5931480  0.150913E+00  0.992E-01    0.01       1.0  T
  13  -1156.7157307 -0.122583E+00  0.859E-01    0.00       1.0  T
  14  -1156.8770969 -0.161366E+00  0.848E-01    0.01       1.0  T
  15  -1156.5004811  0.376616E+00  0.960E-01    0.01       1.0  T
  16  -1157.0300857 -0.529605E+00  0.684E-01    0.00       1.0  T
  17  -1156.9598172  0.702685E-01  0.716E-01    0.01       1.0  T
  18  -1157.1321214 -0.172304E+00  0.554E-01    0.00       1.0  T
  19  -1157.1991732 -0.670517E-01  0.427E-01    0.00       1.0  T
  20  -1156.9423222  0.256851E+00  0.695E-01    0.00       1.0  T
  21  -1157.1957717 -0.253450E+00  0.479E-01    0.01       1.0  T
  22  -1157.1959565 -0.184846E-03  0.435E-01    0.00       1.0  T
  23  -1157.1633857  0.325709E-01  0.509E-01    0.00       1.0  T
  24  -1157.2118739 -0.484883E-01  0.415E-01    0.00       1.0  T
  25  -1157.3029993 -0.911254E-01  0.269E-01    0.01       1.0  T
  26  -1157.3210662 -0.180669E-01  0.219E-01    0.01       1.0  T
  27  -1157.3156887  0.537752E-02  0.221E-01    0.01       1.0  T
  28  -1157.2860970  0.295917E-01  0.278E-01    0.00       1.0  T
  29  -1157.3332931 -0.471961E-01  0.174E-01    0.00       1.0  T
  30  -1157.3316014  0.169172E-02  0.175E-01    0.00       1.0  T
  31  -1157.3244968  0.710457E-02  0.195E-01    0.00       1.0  T
  32  -1157.3425213 -0.180245E-01  0.133E-01    0.01       1.0  T
  33  -1157.3495395 -0.701812E-02  0.890E-02    0.00       1.0  T
  34  -1157.3433640  0.617544E-02  0.125E-01    0.00       1.0  T
  35  -1157.3518867 -0.852273E-02  0.733E-02    0.00       1.0  T
  36  -1157.3522280 -0.341295E-03  0.640E-02    0.00       1.0  T
  37  -1157.3534949 -0.126689E-02  0.579E-02    0.00       1.0  T
  38  -1157.3530255  0.469424E-03  0.561E-02    0.00       1.0  T
  39  -1157.3546950 -0.166952E-02  0.379E-02    0.00       1.0  T
  40  -1157.3547804 -0.854010E-04  0.371E-02    0.00       1.0  T
  41  -1157.3545373  0.243087E-03  0.397E-02    0.00       1.0  T
  42  -1157.3554615 -0.924112E-03  0.245E-02    0.00       1.0  T
  43  -1157.3551861  0.275350E-03  0.288E-02    0.00       1.0  T
  44  -1157.3555508 -0.364703E-03  0.209E-02    0.00       1.0  T
  45  -1157.3556202 -0.693895E-04  0.193E-02    0.00       1.0  T
  46  -1157.3557329 -0.112683E-03  0.151E-02    0.00       1.0  T
  47  -1157.3557608 -0.279433E-04  0.143E-02    0.00       1.0  T
  48  -1157.3557863 -0.254756E-04  0.122E-02    0.00       1.0  T
  49  -1157.3557928 -0.654218E-05  0.116E-02    0.00       1.0  T
  50  -1157.3557644  0.284139E-04  0.128E-02    0.00       1.0  T
  51  -1157.3558558 -0.913886E-04  0.841E-03    0.00       1.0  T
  52  -1157.3558557  0.910982E-07  0.783E-03    0.00       1.0  T
  53  -1157.3558632 -0.742501E-05  0.760E-03    0.00       1.0  T
  54  -1157.3558769 -0.137083E-04  0.646E-03    0.00       1.0  T
  55  -1157.3558999 -0.230806E-04  0.434E-03    0.00       1.0  T
  56  -1157.3558978  0.215233E-05  0.449E-03    0.00       1.0  T
  57  -1157.3558978 -0.228220E-07  0.415E-03    0.00       1.0  T
  58  -1157.3559046 -0.678845E-05  0.334E-03    0.00       1.3  T
  59  -1157.3559099 -0.526336E-05  0.225E-03    0.00       1.9  T
  60  -1157.3559116 -0.173455E-05  0.192E-03    0.00       2.2  T
  61  -1157.3559131 -0.152407E-05  0.130E-03    0.00       3.2  T
  62  -1157.3559141 -0.969497E-06  0.853E-04    0.00       4.9  T
  63  -1157.3559138  0.261171E-06  0.957E-04    0.00       4.4  T

   *** convergence criteria satisfied after 63 iterations ***

         #    Occupation            Energy/Eh            Energy/eV
      -------------------------------------------------------------
         1        2.0000           -0.7546158             -20.5341
       ...           ...                  ...                  ...
       969        1.6627           -0.4257469             -11.5852
       970        1.6368           -0.4256616             -11.5828
       971        1.5647           -0.4254469             -11.5770
       972        1.5374           -0.4253724             -11.5750
       973        1.5110           -0.4253030             -11.5731
       974        1.4826           -0.4252315             -11.5711
       975        1.4447           -0.4251398             -11.5686 (HOMO)
       976        1.4022           -0.4250413             -11.5660 (LUMO)
       977        1.2734           -0.4247643             -11.5584
       978        1.2093           -0.4246349             -11.5549
       979        1.0939           -0.4244103             -11.5488
       980        0.9801           -0.4241934             -11.5429
       ...           ...                  ...                  ...
      1734                          1.2461066              33.9083
      -------------------------------------------------------------
                  HL-Gap            0.0000984 Eh            0.0027 eV
             Fermi-level           -0.4242313 Eh          -11.5439 eV

 SCC (total)                   0 d,  0 h,  0 min, 24.167 sec
 SCC setup                      ...        0 min,  0.043 sec (  0.180%)
 Dispersion                     ...        0 min,  0.133 sec (  0.549%)
 classical contributions        ...        0 min,  0.002 sec (  0.010%)
 integral evaluation            ...        0 min,  0.349 sec (  1.445%)
 iterations                     ...        0 min, 22.382 sec ( 92.613%)
 molecular gradient             ...        0 min,  1.203 sec (  4.977%)
 printout                       ...        0 min,  0.055 sec (  0.226%)

         :::::::::::::::::::::::::::::::::::::::::::::::::::::
         ::                     SUMMARY                     ::
         :::::::::::::::::::::::::::::::::::::::::::::::::::::
         :: total energy           -1146.365306170538 Eh    ::
         :: total w/o Gsasa/hb     -1146.298852256228 Eh    ::
         :: gradient norm              0.476928135876 Eh/a0 ::
         :: HOMO-LUMO gap              0.002678939819 eV    ::
         ::.................................................::
         :: SCC energy             -1157.355913831814 Eh    ::
         :: -> isotropic ES            5.932796879037 Eh    ::
         :: -> anisotropic ES         -0.839204877084 Eh    ::
         :: -> anisotropic XC          0.227317340360 Eh    ::
         :: -> dispersion             -0.960707730852 Eh    ::
         :: -> Gsolv                  -2.382244475643 Eh    ::
         ::    -> Gelec               -2.315790561334 Eh    ::
         ::    -> Gsasa                0.063556176004 Eh    ::
         ::    -> Ghb                 -0.131090850012 Eh    ::
         ::    -> Gshift               0.001080759698 Eh    ::
         :: repulsion energy          10.909931222456 Eh    ::
         :: add. restraining           0.000000000000 Eh    ::
         :: total charge               0.000000000052 e     ::
         :::::::::::::::::::::::::::::::::::::::::::::::::::::

           -------------------------------------------------
          |                Property Printout                |
           -------------------------------------------------

    * Orbital Energies and Occupations

         #    Occupation            Energy/Eh            Energy/eV
      -------------------------------------------------------------
         1        2.0000           -0.7546158             -20.5341
       ...           ...                  ...                  ...
       963        1.7664           -0.4261531             -11.5962
       964        1.7581           -0.4261155             -11.5952
       965        1.7498           -0.4260793             -11.5942
       966        1.7324           -0.4260056             -11.5922
       967        1.7297           -0.4259947             -11.5919
       968        1.6732           -0.4257827             -11.5861
       969        1.6627           -0.4257469             -11.5852
       970        1.6368           -0.4256616             -11.5828
       971        1.5647           -0.4254469             -11.5770
       972        1.5374           -0.4253724             -11.5750
       973        1.5110           -0.4253030             -11.5731
       974        1.4826           -0.4252315             -11.5711
       975        1.4447           -0.4251398             -11.5686 (HOMO)
       976        1.4022           -0.4250413             -11.5660 (LUMO)
       977        1.2734           -0.4247643             -11.5584
       978        1.2093           -0.4246349             -11.5549
       979        1.0939           -0.4244103             -11.5488
       980        0.9801           -0.4241934             -11.5429
       981        0.9514           -0.4241388             -11.5414
       982        0.7691           -0.4237845             -11.5318
       983        0.6548           -0.4235474             -11.5253
       984                         -0.2907555              -7.9119
       985                         -0.2907099              -7.9106
       986                         -0.2903513              -7.9009
       ...                                ...                  ...
      1734                          1.2461066              33.9083
      -------------------------------------------------------------
                  HL-Gap            0.0000984 Eh            0.0027 eV
             Fermi-level           -0.4242313 Eh          -11.5439 eV

 * generalized Born model for continuum solvation

     #   Z     Born rad/Å   SASA/Å²    H-bond
     1   8 O        1.993    17.520    -0.002
     2   6 C        2.333     0.553    -0.000
     3   6 C        2.509     0.221    -0.000
     4   8 O        2.332    10.946    -0.001
     5   6 C        2.592     0.241    -0.000
     6   8 O        2.329     4.752    -0.001
     7   6 C        2.575     0.500    -0.000
     8   6 C        2.681     0.418    -0.000
     9   7 N        2.717     0.743    -0.000
    10   6 C        2.595     8.227    -0.001
    11   7 N        2.382    19.688    -0.001
    12   6 C        2.896     3.507    -0.000
    13   6 C        2.642     4.626    -0.000
    14   8 O        2.151    15.802    -0.002
    15   7 N        2.553     1.955    -0.000
    16   6 C        2.728     4.252    -0.000
    17   7 N        2.252     3.937    -0.000
    18   7 N        2.545     5.411    -0.000
    19   6 C        3.032     3.708    -0.000
    20   1 H        1.832    17.780    -0.030
    21   1 H        1.865     8.296    -0.014
    22   1 H        1.901    17.925    -0.030
    23   1 H        1.958    10.001    -0.017
    24   1 H        1.986     9.790    -0.016
    25   1 H        1.992     2.561    -0.004
    26   1 H        2.026     4.683    -0.008
    27   1 H        1.924    12.815    -0.022
    28   1 H        2.214     1.709    -0.003
    29   1 H        1.940     4.681    -0.008
    30   1 H        1.893    17.770    -0.030
    31   1 H        1.703    25.880    -0.043
    32  15 P        2.755     9.770    -0.002
    33   8 O        2.064    27.511    -0.003
    34   8 O        2.077    25.852    -0.003
    35   8 O        2.300     1.341    -0.000
    36   6 C        2.441     0.373    -0.000
    37   6 C        2.563     0.105    -0.000
    38   8 O        2.442     0.446    -0.000
    39   6 C        2.619     0.047    -0.000
    40   8 O        2.344     4.034    -0.000
    41   6 C        2.595     0.230    -0.000
    42   6 C        2.750     0.000     0.000
    43   7 N        2.859     0.005    -0.000
    44   6 C        2.716     3.365    -0.000
    45   7 N        2.495    13.199    -0.001
    46   6 C        3.076     0.344    -0.000
    47   6 C        2.749     0.181    -0.000
    48   8 O        2.207     8.641    -0.001
    49   7 N        2.675     0.000     0.000
    50   6 C        2.836     0.004    -0.000
    51   7 N        2.310     0.331    -0.000
    52   7 N        2.636     1.516    -0.000
    53   6 C        3.225     0.000     0.000
    54   1 H        1.896    10.954    -0.018
    55   1 H        1.880    14.779    -0.025
    56   1 H        1.947    14.368    -0.024
    57   1 H        1.983     7.976    -0.013
    58   1 H        1.988    11.398    -0.019
    59   1 H        2.020     0.405    -0.001
    60   1 H        2.061     3.995    -0.007
    61   1 H        1.988     7.000    -0.012
    62   1 H        2.326     0.000     0.000
    63   1 H        1.994     2.066    -0.003
    64   1 H        1.923    14.825    -0.025
    65  15 P        2.766     9.453    -0.002
    66   8 O        2.068    27.516    -0.003
    67   8 O        2.085    25.761    -0.003
    68   8 O        2.313     0.549    -0.000
    69   6 C        2.448     0.373    -0.000
    70   6 C        2.563     0.157    -0.000
    71   8 O        2.424     1.171    -0.000
    72   6 C        2.624     0.192    -0.000
    73   8 O        2.352     3.802    -0.000
    74   6 C        2.602     0.596    -0.000
    75   6 C        2.755     0.011    -0.000
    76   7 N        2.862     0.001    -0.000
    77   6 C        2.722     3.856    -0.000
    78   7 N        2.508    12.529    -0.001
    79   6 C        3.111     0.301    -0.000
    80   6 C        2.775     0.258    -0.000
    81   8 O        2.220     8.550    -0.001
    82   7 N        2.694     0.000     0.000
    83   6 C        2.858     0.000     0.000
    84   7 N        2.327     0.189    -0.000
    85   7 N        2.650     1.769    -0.000
    86   6 C        3.243     0.000     0.000
    87   1 H        1.895    11.952    -0.020
    88   1 H        1.885    14.245    -0.024
    89   1 H        1.935    16.669    -0.028
    90   1 H        1.976     9.745    -0.016
    91   1 H        2.000     9.117    -0.015
    92   1 H        2.002     3.031    -0.005
    93   1 H        2.069     3.300    -0.006
    94   1 H        1.991     7.043    -0.012
    95   1 H        2.340     0.000     0.000
    96   1 H        2.007     1.873    -0.003
    97   1 H        1.936    12.359    -0.021
    98  15 P        2.771     9.013    -0.002
    99   8 O        2.070    27.357    -0.003
   100   8 O        2.090    24.703    -0.003
   101   8 O        2.314     0.511    -0.000
   102   6 C        2.454     0.373    -0.000
   103   6 C        2.568     0.112    -0.000
   104   8 O        2.440     0.509    -0.000
   105   6 C        2.627     0.144    -0.000
   106   8 O        2.349     4.144    -0.000
   107   6 C        2.607     0.440    -0.000
   108   6 C        2.763     0.000    -0.000
   109   7 N        2.890     0.000     0.000
   110   6 C        2.748     1.096    -0.000
   111   7 N        2.543     8.080    -0.001
   112   6 C        3.165     0.000    -0.000
   113   6 C        2.796     0.001    -0.000
   114   8 O        2.237     6.308    -0.001
   115   7 N        2.679     0.000     0.000
   116   6 C        2.831     0.003    -0.000
   117   7 N        2.300     0.363    -0.000
   118   7 N        2.648     1.708    -0.000
   119   6 C        3.279     0.000     0.000
   120   1 H        1.898    11.561    -0.019
   121   1 H        1.891    13.717    -0.023
   122   1 H        1.941    16.440    -0.028
   123   1 H        1.986     8.362    -0.014
   124   1 H        2.003     9.016    -0.015
   125   1 H        2.018     1.445    -0.002
   126   1 H        2.066     4.420    -0.007
   127   1 H        1.997     6.478    -0.011
   128   1 H        2.323     0.000     0.000
   129   1 H        1.983     2.473    -0.004
   130   1 H        1.920    14.083    -0.024
   131  15 P        2.765     9.792    -0.002
   132   8 O        2.069    27.631    -0.003
   133   8 O        2.083    25.964    -0.003
   134   8 O        2.305     1.615    -0.000
   135   6 C        2.449     0.386    -0.000
   136   6 C        2.575     0.128    -0.000
   137   8 O        2.464     0.356    -0.000
   138   6 C        2.627     0.017    -0.000
   139   8 O        2.342     3.864    -0.000
   140   6 C        2.621     0.000    -0.000
   141   6 C        2.757     0.000    -0.000
   142   7 N        2.776     0.000     0.000
   143   6 C        2.831     0.000     0.000
   144   8 O        2.285     2.134    -0.000
   145   7 N        2.660     0.000     0.000
   146   6 C        2.801     0.481    -0.000
   147   7 N        2.284     1.208    -0.000
   148   6 C        2.702     3.461    -0.000
   149   6 C        2.736     1.484    -0.000
   150   1 H        1.904    11.606    -0.019
   151   1 H        1.883    14.795    -0.025
   152   1 H        1.959    14.135    -0.024
   153   1 H        1.995     7.686    -0.013
   154   1 H        2.020     6.492    -0.011
   155   1 H        2.050     0.000    -0.000
   156   1 H        2.036     5.199    -0.009
   157   1 H        1.970     2.098    -0.004
   158   1 H        1.903    19.431    -0.033
   159   1 H        1.978    14.695    -0.025
   160   1 H        2.021     6.135    -0.010
   161  15 P        2.767     9.889    -0.002
   162   8 O        2.068    27.806    -0.003
   163   8 O        2.085    25.486    -0.003
   164   8 O        2.313     0.881    -0.000
   165   6 C        2.448     0.378    -0.000
   166   6 C        2.558     0.146    -0.000
   167   8 O        2.409     5.202    -0.001
   168   6 C        2.618     0.193    -0.000
   169   8 O        2.347     4.160    -0.000
   170   6 C        2.598     0.449    -0.000
   171   6 C        2.739     0.283    -0.000
   172   7 N        2.831     0.004    -0.000
   173   6 C        2.710     2.976    -0.000
   174   7 N        2.507    11.062    -0.001
   175   6 C        3.102     0.155    -0.000
   176   6 C        2.794     0.146    -0.000
   177   8 O        2.237     6.818    -0.001
   178   7 N        2.726     0.000     0.000
   179   6 C        2.886     0.000     0.000
   180   7 N        2.337     0.452    -0.000
   181   7 N        2.651     1.648    -0.000
   182   6 C        3.211     0.003    -0.000
   183   1 H        1.900    12.326    -0.021
   184   1 H        1.880    14.884    -0.025
   185   1 H        1.933    16.810    -0.028
   186   1 H        1.974     9.590    -0.016
   187   1 H        1.999     9.690    -0.016
   188   1 H        2.004     2.423    -0.004
   189   1 H        2.060     4.548    -0.008
   190   1 H        1.992     6.666    -0.011
   191   1 H        2.366     0.000     0.000
   192   1 H        2.017     1.973    -0.003
   193   1 H        1.937    15.980    -0.027
   194  15 P        2.766     9.654    -0.002
   195   8 O        2.068    27.586    -0.003
   196   8 O        2.085    25.244    -0.003
   197   8 O        2.307     1.158    -0.000
   198   6 C        2.450     0.369    -0.000
   199   6 C        2.569     0.155    -0.000
   200   8 O        2.447     0.483    -0.000
   201   6 C        2.623     0.080    -0.000
   202   8 O        2.349     3.992    -0.000
   203   6 C        2.601     0.383    -0.000
   204   6 C        2.762     0.001    -0.000
   205   7 N        2.883     0.011    -0.000
   206   6 C        2.737     3.579    -0.000
   207   7 N        2.516    12.590    -0.001
   208   6 C        3.107     0.453    -0.000
   209   6 C        2.763     0.370    -0.000
   210   8 O        2.210     9.796    -0.001
   211   7 N        2.700     0.000     0.000
   212   6 C        2.878     0.000    -0.000
   213   7 N        2.345     0.156    -0.000
   214   7 N        2.665     1.469    -0.000
   215   6 C        3.261     0.000     0.000
   216   1 H        1.901    11.484    -0.019
   217   1 H        1.886    14.376    -0.024
   218   1 H        1.946    15.643    -0.026
   219   1 H        1.980     8.960    -0.015
   220   1 H        1.994    11.244    -0.019
   221   1 H        2.013     1.626    -0.003
   222   1 H        2.068     3.702    -0.006
   223   1 H        1.999     6.624    -0.011
   224   1 H        2.347     0.000     0.000
   225   1 H        2.023     0.987    -0.002
   226   1 H        1.949     9.841    -0.017
   227  15 P        2.768     9.162    -0.002
   228   8 O        2.070    27.500    -0.003
   229   8 O        2.087    25.200    -0.003
   230   8 O        2.312     0.529    -0.000
   231   6 C        2.452     0.382    -0.000
   232   6 C        2.564     0.148    -0.000
   233   8 O        2.434     0.802    -0.000
   234   6 C        2.618     0.184    -0.000
   235   8 O        2.332     5.821    -0.001
   236   6 C        2.594     0.464    -0.000
   237   6 C        2.749     0.001    -0.000
   238   7 N        2.860     0.001    -0.000
   239   6 C        2.737     3.345    -0.000
   240   7 N        2.525    11.544    -0.001
   241   6 C        3.107     0.069    -0.000
   242   6 C        2.774     0.119    -0.000
   243   8 O        2.223     7.482    -0.001
   244   7 N        2.685     0.000     0.000
   245   6 C        2.829     0.000    -0.000
   246   7 N        2.304     0.251    -0.000
   247   7 N        2.619     2.346    -0.000
   248   6 C        3.219     0.000     0.000
   249   1 H        1.899    11.332    -0.019
   250   1 H        1.889    13.875    -0.023
   251   1 H        1.938    16.478    -0.028
   252   1 H        1.973     9.750    -0.016
   253   1 H        1.994    10.176    -0.017
   254   1 H        2.002     1.793    -0.003
   255   1 H        2.056     7.113    -0.012
   256   1 H        2.005     5.413    -0.009
   257   1 H        2.334     0.000     0.000
   258   1 H        1.988     2.081    -0.003
   259   1 H        1.919    14.285    -0.024
   260  15 P        2.760     8.690    -0.002
   261   8 O        2.058    30.862    -0.003
   262   8 O        2.095    21.667    -0.002
   263   8 O        2.283     3.653    -0.000
   264   6 C        2.436     0.248    -0.000
   265   6 C        2.530     0.141    -0.000
   266   8 O        2.411     0.797    -0.000
   267   6 C        2.479     0.340    -0.000
   268   8 O        2.053    14.928    -0.002
   269   6 C        2.513     1.188    -0.000
   270   6 C        2.698     0.001    -0.000
   271   7 N        2.794     0.067    -0.000
   272   6 C        2.682     4.000    -0.000
   273   7 N        2.463    13.592    -0.001
   274   6 C        2.964     3.346    -0.000
   275   6 C        2.643     4.345    -0.000
   276   8 O        2.147    15.643    -0.002
   277   7 N        2.530     1.892    -0.000
   278   6 C        2.703     3.948    -0.000
   279   7 N        2.248     3.724    -0.000
   280   7 N        2.529     5.605    -0.000
   281   6 C        3.083     2.349    -0.000
   282   1 H        1.880    14.871    -0.025
   283   1 H        1.902     8.381    -0.014
   284   1 H        1.920    16.987    -0.029
   285   1 H        1.908    14.548    -0.024
   286   1 H        1.732    22.215    -0.037
   287   1 H        1.957    12.628    -0.021
   288   1 H        1.913    15.779    -0.027
   289   1 H        2.021     7.655    -0.013
   290   1 H        1.972     8.531    -0.014
   291   1 H        2.191     2.346    -0.004
   292   1 H        1.944     3.112    -0.005
   293   1 H        1.890    17.585    -0.030
   294   8 O        2.023     6.222    -0.001
   295   6 C        2.323     0.644    -0.000
   296   6 C        2.508     0.210    -0.000
   297   8 O        2.334     9.690    -0.001
   298   6 C        2.592     0.171    -0.000
   299   8 O        2.326     4.686    -0.001
   300   6 C        2.585     0.251    -0.000
   301   6 C        2.663     0.568    -0.000
   302   7 N        2.617     0.976    -0.000
   303   6 C        2.658     4.572    -0.000
   304   8 O        2.184     8.476    -0.001
   305   7 N        2.493     3.017    -0.000
   306   6 C        2.654     3.651    -0.000
   307   7 N        2.217     4.006    -0.000
   308   6 C        2.574     5.707    -0.001
   309   6 C        2.605     4.650    -0.000
   310   1 H        1.820    20.150    -0.034
   311   1 H        1.830    18.682    -0.031
   312   1 H        1.909    17.341    -0.029
   313   1 H        1.972     7.763    -0.013
   314   1 H        2.001     6.021    -0.010
   315   1 H        2.028     0.054    -0.000
   316   1 H        1.981     8.228    -0.014
   317   1 H        1.916     5.242    -0.009
   318   1 H        1.864    20.995    -0.035
   319   1 H        1.919    19.909    -0.033
   320   1 H        1.956     8.048    -0.014
   321   1 H        1.710    25.625    -0.043
   322  15 P        2.755     9.655    -0.002
   323   8 O        2.065    27.500    -0.003
   324   8 O        2.077    26.347    -0.003
   325   8 O        2.304     0.560    -0.000
   326   6 C        2.440     0.354    -0.000
   327   6 C        2.551     0.135    -0.000
   328   8 O        2.411     1.214    -0.000
   329   6 C        2.611     0.187    -0.000
   330   8 O        2.328     5.537    -0.001
   331   6 C        2.585     0.526    -0.000
   332   6 C        2.724     0.002    -0.000
   333   7 N        2.701     0.000     0.000
   334   6 C        2.772     0.000     0.000
   335   8 O        2.259     2.338    -0.000
   336   7 N        2.632     0.000     0.000
   337   6 C        2.798     0.000     0.000
   338   7 N        2.301     0.177    -0.000
   339   6 C        2.694     0.341    -0.000
   340   6 C        2.704     0.612    -0.000
   341   1 H        1.891    10.885    -0.018
   342   1 H        1.880    14.299    -0.024
   343   1 H        1.930    16.447    -0.028
   344   1 H        1.969     9.853    -0.017
   345   1 H        1.991     9.376    -0.016
   346   1 H        2.000     1.575    -0.003
   347   1 H        2.031     5.089    -0.009
   348   1 H        1.975     2.203    -0.004
   349   1 H        1.923    11.340    -0.019
   350   1 H        1.987    10.543    -0.018
   351   1 H        2.019     4.853    -0.008
   352  15 P        2.757     8.756    -0.002
   353   8 O        2.056    31.482    -0.003
   354   8 O        2.094    21.563    -0.002
   355   8 O        2.284     4.325    -0.000
   356   6 C        2.441     0.258    -0.000
   357   6 C        2.562     0.069    -0.000
   358   8 O        2.432     0.618    -0.000
   359   6 C        2.618     0.004    -0.000
   360   8 O        2.340     4.425    -0.000
   361   6 C        2.595     0.279    -0.000
   362   6 C        2.735     0.001    -0.000
   363   7 N        2.731     0.000     0.000
   364   6 C        2.803     0.000     0.000
   365   8 O        2.295     1.626    -0.000
   366   7 N        2.639     0.000     0.000
   367   6 C        2.788     0.003    -0.000
   368   7 N        2.286     0.351    -0.000
   369   6 C        2.697     1.943    -0.000
   370   6 C        2.708     1.231    -0.000
   371   1 H        1.882    16.006    -0.027
   372   1 H        1.906     9.082    -0.015
   373   1 H        1.949    15.153    -0.025
   374   1 H        1.988     7.623    -0.013
   375   1 H        1.994     9.594    -0.016
   376   1 H        2.021     0.077    -0.000
   377   1 H        2.036     3.267    -0.005
   378   1 H        1.967     2.975    -0.005
   379   1 H        1.908    14.982    -0.025
   380   1 H        1.986    13.492    -0.023
   381   1 H        2.004     7.127    -0.012
   382  15 P        2.762     9.775    -0.002
   383   8 O        2.070    27.356    -0.003
   384   8 O        2.079    26.552    -0.003
   385   8 O        2.304     1.608    -0.000
   386   6 C        2.446     0.391    -0.000
   387   6 C        2.570     0.124    -0.000
   388   8 O        2.436     1.099    -0.000
   389   6 C        2.627     0.012    -0.000
   390   8 O        2.343     3.993    -0.000
   391   6 C        2.611     0.004    -0.000
   392   6 C        2.740     0.000     0.000
   393   7 N        2.740     0.000     0.000
   394   6 C        2.815     0.000     0.000
   395   8 O        2.289     2.424    -0.000
   396   7 N        2.652     0.000     0.000
   397   6 C        2.792     0.527    -0.000
   398   7 N        2.293     0.868    -0.000
   399   6 C        2.701     3.559    -0.000
   400   6 C        2.715     1.650    -0.000
   401   1 H        1.898    12.605    -0.021
   402   1 H        1.884    14.622    -0.025
   403   1 H        1.957    14.956    -0.025
   404   1 H        1.999     6.972    -0.012
   405   1 H        2.013     7.204    -0.012
   406   1 H        2.040     0.000    -0.000
   407   1 H        2.031     5.473    -0.009
   408   1 H        1.977     1.449    -0.002
   409   1 H        1.920    14.627    -0.025
   410   1 H        1.993    12.021    -0.020
   411   1 H        2.018     5.360    -0.009
   412  15 P        2.767     9.829    -0.002
   413   8 O        2.069    27.576    -0.003
   414   8 O        2.085    25.902    -0.003
   415   8 O        2.315     0.724    -0.000
   416   6 C        2.448     0.384    -0.000
   417   6 C        2.562     0.163    -0.000
   418   8 O        2.414     5.099    -0.001
   419   6 C        2.623     0.160    -0.000
   420   8 O        2.358     2.887    -0.000
   421   6 C        2.607     0.350    -0.000
   422   6 C        2.753     0.224    -0.000
   423   7 N        2.849     0.003    -0.000
   424   6 C        2.715     1.836    -0.000
   425   7 N        2.511     8.857    -0.001
   426   6 C        3.112     0.008    -0.000
   427   6 C        2.782     0.012    -0.000
   428   8 O        2.230     6.945    -0.001
   429   7 N        2.696     0.000     0.000
   430   6 C        2.873     0.000     0.000
   431   7 N        2.326     0.359    -0.000
   432   7 N        2.663     1.725    -0.000
   433   6 C        3.236     0.012    -0.000
   434   1 H        1.898    12.972    -0.022
   435   1 H        1.881    14.920    -0.025
   436   1 H        1.937    16.335    -0.027
   437   1 H        1.977    10.145    -0.017
   438   1 H        2.002     8.671    -0.015
   439   1 H        2.025     1.423    -0.002
   440   1 H        2.071     4.474    -0.008
   441   1 H        1.990     7.206    -0.012
   442   1 H        2.336     0.000     0.000
   443   1 H        2.003     2.112    -0.004
   444   1 H        1.935    15.239    -0.026
   445  15 P        2.774     8.860    -0.002
   446   8 O        2.071    27.679    -0.003
   447   8 O        2.096    23.629    -0.003
   448   8 O        2.316     0.693    -0.000
   449   6 C        2.452     0.354    -0.000
   450   6 C        2.558     0.164    -0.000
   451   8 O        2.411     3.992    -0.000
   452   6 C        2.621     0.118    -0.000
   453   8 O        2.342     4.188    -0.000
   454   6 C        2.610     0.354    -0.000
   455   6 C        2.737     0.023    -0.000
   456   7 N        2.753     0.000     0.000
   457   6 C        2.811     0.000     0.000
   458   8 O        2.269     2.562    -0.000
   459   7 N        2.676     0.000     0.000
   460   6 C        2.851     0.000    -0.000
   461   7 N        2.322     0.374    -0.000
   462   6 C        2.738     1.088    -0.000
   463   6 C        2.748     0.613    -0.000
   464   1 H        1.897    12.289    -0.021
   465   1 H        1.887    13.968    -0.023
   466   1 H        1.931    17.104    -0.029
   467   1 H        1.986     8.402    -0.014
   468   1 H        2.016     7.852    -0.013
   469   1 H        2.026     0.719    -0.001
   470   1 H        2.022     5.785    -0.010
   471   1 H        1.990     2.302    -0.004
   472   1 H        1.931    14.894    -0.025
   473   1 H        2.009    10.334    -0.017
   474   1 H        2.046     1.992    -0.003
   475  15 P        2.761     9.956    -0.002
   476   8 O        2.067    27.667    -0.003
   477   8 O        2.080    26.366    -0.003
   478   8 O        2.300     1.993    -0.000
   479   6 C        2.442     0.381    -0.000
   480   6 C        2.570     0.092    -0.000
   481   8 O        2.445     1.245    -0.000
   482   6 C        2.622     0.043    -0.000
   483   8 O        2.321     6.110    -0.001
   484   6 C        2.618     0.005    -0.000
   485   6 C        2.735     0.002    -0.000
   486   7 N        2.746     0.000     0.000
   487   6 C        2.806     0.000     0.000
   488   8 O        2.286     2.061    -0.000
   489   7 N        2.650     0.000     0.000
   490   6 C        2.817     0.000     0.000
   491   7 N        2.300     0.293    -0.000
   492   6 C        2.713     0.668    -0.000
   493   6 C        2.729     0.579    -0.000
   494   1 H        1.901    11.881    -0.020
   495   1 H        1.878    15.227    -0.026
   496   1 H        1.959    15.299    -0.026
   497   1 H        1.994     8.505    -0.014
   498   1 H        2.038     2.246    -0.004
   499   1 H        2.022     2.835    -0.005
   500   1 H        2.020     5.887    -0.010
   501   1 H        1.972     2.551    -0.004
   502   1 H        1.918    14.716    -0.025
   503   1 H        1.987    12.716    -0.021
   504   1 H        2.024     6.158    -0.010
   505  15 P        2.762     9.258    -0.002
   506   8 O        2.057    31.474    -0.003
   507   8 O        2.102    20.572    -0.002
   508   8 O        2.290     4.677    -0.001
   509   6 C        2.455     0.340    -0.000
   510   6 C        2.561     0.173    -0.000
   511   8 O        2.415     3.677    -0.000
   512   6 C        2.624     0.133    -0.000
   513   8 O        2.338     4.892    -0.001
   514   6 C        2.607     0.000     0.000
   515   6 C        2.725     0.054    -0.000
   516   7 N        2.726     0.000     0.000
   517   6 C        2.781     0.000     0.000
   518   8 O        2.266     2.864    -0.000
   519   7 N        2.634     0.000     0.000
   520   6 C        2.802     0.000    -0.000
   521   7 N        2.301     0.207    -0.000
   522   6 C        2.693     0.694    -0.000
   523   6 C        2.713     0.686    -0.000
   524   1 H        1.882    15.523    -0.026
   525   1 H        1.932     5.650    -0.009
   526   1 H        1.931    17.043    -0.029
   527   1 H        1.995     6.412    -0.011
   528   1 H        2.020     5.411    -0.009
   529   1 H        2.022     0.813    -0.001
   530   1 H        2.009     8.251    -0.014
   531   1 H        1.974     2.204    -0.004
   532   1 H        1.918    13.057    -0.022
   533   1 H        1.979    13.670    -0.023
   534   1 H        2.024     3.364    -0.006
   535  15 P        2.748    11.146    -0.002
   536   8 O        2.053    32.144    -0.004
   537   8 O        2.085    22.595    -0.003
   538   8 O        2.264     7.090    -0.001
   539   6 C        2.437     0.245    -0.000
   540   6 C        2.532     0.098    -0.000
   541   8 O        2.388     4.553    -0.001
   542   6 C        2.484     0.061    -0.000
   543   8 O        2.042    14.607    -0.002
   544   6 C        2.501     0.587    -0.000
   545   6 C        2.654     0.090    -0.000
   546   7 N        2.650     0.001    -0.000
   547   6 C        2.681     2.543    -0.000
   548   8 O        2.193     7.458    -0.001
   549   7 N        2.529     1.926    -0.000
   550   6 C        2.717     3.395    -0.000
   551   7 N        2.254     3.754    -0.000
   552   6 C        2.662     4.341    -0.000
   553   6 C        2.676     2.022    -0.000
   554   1 H        1.874    14.772    -0.025
   555   1 H        1.932     4.676    -0.008
   556   1 H        1.932    15.828    -0.027
   557   1 H        1.942    10.943    -0.018
   558   1 H        1.727    23.383    -0.039
   559   1 H        1.940    15.073    -0.025
   560   1 H        1.909    16.834    -0.028
   561   1 H        1.961    11.185    -0.019
   562   1 H        1.936     3.661    -0.006
   563   1 H        1.901    14.775    -0.025
   564   1 H        1.983    11.944    -0.020
   565   1 H        2.013     3.391    -0.006

 total SASA / Å² :     3521.954

     #   Z          covCN         q      C6AA      α(0)
     1   8 O        1.654    -0.476    22.376     6.386
     2   6 C        3.673     0.060    19.797     6.377
     3   6 C        3.783     0.094    19.039     6.216
     4   8 O        1.699    -0.282    18.679     5.835
     5   6 C        3.924     0.116    18.633     6.135
     6   8 O        1.656    -0.329    19.520     5.964
     7   6 C        3.825    -0.093    22.250     6.712
     8   6 C        3.717     0.162    18.103     6.078
     9   7 N        2.819    -0.005    21.354     6.863
    10   6 C        3.141     0.120    25.151     8.207
    11   7 N        1.869    -0.162    25.308     7.457
    12   6 C        3.195     0.047    26.437     8.383
    13   6 C        2.772     0.284    22.186     7.714
    14   8 O        0.860    -0.377    21.218     6.176
    15   7 N        2.714    -0.144    24.109     7.292
    16   6 C        2.837     0.248    22.841     7.832
    17   7 N        2.668    -0.188    25.077     7.437
    18   7 N        1.847    -0.231    26.900     7.687
    19   6 C        3.089     0.141    24.833     8.168
    20   1 H        0.925     0.078     2.005     2.214
    21   1 H        0.925     0.084     1.934     2.175
    22   1 H        0.924     0.087     1.909     2.161
    23   1 H        0.924     0.068     2.110     2.272
    24   1 H        0.924     0.110     1.698     2.037
    25   1 H        0.925     0.097     1.809     2.104
    26   1 H        0.924     0.119     1.623     1.992
    27   1 H        0.926     0.133     1.513     1.924
    28   1 H        0.860     0.291     0.739     1.347
    29   1 H        0.860     0.307     0.692     1.303
    30   1 H        0.860     0.294     0.730     1.338
    31   1 H        0.805     0.397     0.490     1.099
    32  15 P        3.615     0.521   139.114    21.187
    33   8 O        0.808    -0.549    24.929     6.693
    34   8 O        0.808    -0.529    24.458     6.629
    35   8 O        1.656    -0.318    19.332     5.935
    36   6 C        3.879     0.080    19.209     6.231
    37   6 C        3.808     0.091    19.065     6.215
    38   8 O        1.702    -0.290    18.819     5.857
    39   6 C        3.918     0.120    18.575     6.125
    40   8 O        1.657    -0.333    19.598     5.976
    41   6 C        3.818    -0.089    22.175     6.702
    42   6 C        3.749     0.157    18.119     6.071
    43   7 N        2.820    -0.003    21.320     6.858
    44   6 C        3.137     0.113    25.292     8.231
    45   7 N        1.871    -0.166    25.394     7.470
    46   6 C        3.190     0.038    26.671     8.424
    47   6 C        2.771     0.279    22.274     7.730
    48   8 O        0.860    -0.350    20.706     6.101
    49   7 N        2.715    -0.141    24.046     7.283
    50   6 C        2.839     0.244    22.918     7.845
    51   7 N        2.669    -0.187    25.052     7.434
    52   7 N        1.848    -0.223    26.719     7.661
    53   6 C        3.094     0.130    25.050     8.203
    54   1 H        0.924     0.080     1.980     2.201
    55   1 H        0.924     0.047     2.359     2.402
    56   1 H        0.924     0.081     1.970     2.195
    57   1 H        0.924     0.048     2.348     2.396
    58   1 H        0.924     0.100     1.784     2.089
    59   1 H        0.925     0.092     1.864     2.135
    60   1 H        0.924     0.111     1.690     2.033
    61   1 H        0.926     0.119     1.622     1.991
    62   1 H        0.860     0.288     0.749     1.355
    63   1 H        0.860     0.294     0.732     1.340
    64   1 H        0.860     0.288     0.751     1.358
    65  15 P        3.611     0.525   138.987    21.178
    66   8 O        0.808    -0.551    24.981     6.700
    67   8 O        0.808    -0.528    24.446     6.628
    68   8 O        1.656    -0.311    19.199     5.915
    69   6 C        3.878     0.075    19.292     6.245
    70   6 C        3.798     0.088    19.130     6.228
    71   8 O        1.701    -0.273    18.528     5.812
    72   6 C        3.924     0.121    18.548     6.121
    73   8 O        1.657    -0.333    19.595     5.976
    74   6 C        3.825    -0.087    22.141     6.696
    75   6 C        3.743     0.159    18.105     6.070
    76   7 N        2.822    -0.000    21.269     6.850
    77   6 C        3.149     0.114    25.245     8.219
    78   7 N        1.870    -0.153    25.113     7.428
    79   6 C        3.201     0.038    26.602     8.405
    80   6 C        2.772     0.279    22.287     7.732
    81   8 O        0.860    -0.332    20.374     6.052
    82   7 N        2.715    -0.136    23.940     7.267
    83   6 C        2.840     0.245    22.898     7.842
    84   7 N        2.669    -0.186    25.041     7.432
    85   7 N        1.848    -0.223    26.707     7.659
    86   6 C        3.098     0.131    25.026     8.198
    87   1 H        0.924     0.093     1.847     2.125
    88   1 H        0.924     0.050     2.324     2.384
    89   1 H        0.924     0.091     1.872     2.140
    90   1 H        0.924     0.045     2.381     2.413
    91   1 H        0.924     0.102     1.763     2.077
    92   1 H        0.925     0.091     1.874     2.141
    93   1 H        0.924     0.109     1.706     2.043
    94   1 H        0.926     0.119     1.623     1.992
    95   1 H        0.860     0.293     0.733     1.342
    96   1 H        0.860     0.294     0.733     1.341
    97   1 H        0.860     0.272     0.804     1.405
    98  15 P        3.613     0.520   139.142    21.189
    99   8 O        0.808    -0.560    25.175     6.726
   100   8 O        0.808    -0.527    24.421     6.624
   101   8 O        1.656    -0.312    19.219     5.918
   102   6 C        3.882     0.077    19.246     6.237
   103   6 C        3.794     0.090    19.098     6.223
   104   8 O        1.701    -0.283    18.708     5.840
   105   6 C        3.918     0.122    18.536     6.119
   106   8 O        1.656    -0.337    19.666     5.986
   107   6 C        3.820    -0.087    22.148     6.697
   108   6 C        3.735     0.159    18.110     6.073
   109   7 N        2.819    -0.008    21.404     6.871
   110   6 C        3.140     0.108    25.387     8.246
   111   7 N        1.870    -0.160    25.262     7.450
   112   6 C        3.192     0.028    26.882     8.455
   113   6 C        2.772     0.276    22.338     7.741
   114   8 O        0.860    -0.323    20.202     6.026
   115   7 N        2.715    -0.129    23.798     7.245
   116   6 C        2.839     0.247    22.863     7.836
   117   7 N        2.669    -0.186    25.025     7.430
   118   7 N        1.848    -0.232    26.931     7.691
   119   6 C        3.093     0.127    25.119     8.215
   120   1 H        0.924     0.087     1.905     2.158
   121   1 H        0.925     0.039     2.468     2.457
   122   1 H        0.924     0.075     2.035     2.231
   123   1 H        0.924     0.042     2.424     2.435
   124   1 H        0.924     0.102     1.768     2.080
   125   1 H        0.925     0.086     1.922     2.168
   126   1 H        0.924     0.100     1.780     2.087
   127   1 H        0.926     0.114     1.660     2.015
   128   1 H        0.860     0.298     0.719     1.328
   129   1 H        0.860     0.300     0.714     1.323
   130   1 H        0.860     0.264     0.832     1.429
   131  15 P        3.613     0.501   139.845    21.243
   132   8 O        0.808    -0.566    25.315     6.745
   133   8 O        0.808    -0.542    24.767     6.671
   134   8 O        1.656    -0.318    19.327     5.935
   135   6 C        3.882     0.085    19.123     6.217
   136   6 C        3.806     0.095    19.007     6.206
   137   8 O        1.702    -0.289    18.808     5.855
   138   6 C        3.907     0.123    18.520     6.117
   139   8 O        1.656    -0.339    19.708     5.993
   140   6 C        3.817    -0.085    22.098     6.690
   141   6 C        3.741     0.164    18.036     6.059
   142   7 N        2.739    -0.029    21.813     6.936
   143   6 C        2.756     0.314    21.663     7.622
   144   8 O        0.863    -0.496    23.686     6.525
   145   7 N        1.869    -0.270    27.856     7.823
   146   6 C        2.884     0.195    23.861     8.008
   147   7 N        2.676    -0.151    24.277     7.318
   148   6 C        2.911    -0.063    29.557     8.915
   149   6 C        2.861     0.051    26.853     8.494
   150   1 H        0.924     0.078     1.996     2.209
   151   1 H        0.924     0.036     2.501     2.473
   152   1 H        0.924     0.068     2.109     2.271
   153   1 H        0.924     0.047     2.353     2.399
   154   1 H        0.924     0.093     1.850     2.127
   155   1 H        0.925     0.084     1.938     2.177
   156   1 H        0.925     0.107     1.718     2.050
   157   1 H        0.860     0.332     0.626     1.240
   158   1 H        0.860     0.312     0.678     1.289
   159   1 H        0.926     0.154     1.363     1.826
   160   1 H        0.926     0.094     1.838     2.120
   161  15 P        3.612     0.489   140.319    21.279
   162   8 O        0.808    -0.569    25.403     6.756
   163   8 O        0.808    -0.544    24.814     6.677
   164   8 O        1.656    -0.319    19.339     5.936
   165   6 C        3.881     0.084    19.148     6.222
   166   6 C        3.790     0.091    19.080     6.221
   167   8 O        1.700    -0.298    18.960     5.879
   168   6 C        3.917     0.125    18.492     6.112
   169   8 O        1.657    -0.335    19.625     5.980
   170   6 C        3.821    -0.081    22.020     6.678
   171   6 C        3.731     0.165    18.036     6.062
   172   7 N        2.820    -0.014    21.517     6.889
   173   6 C        3.146     0.117    25.181     8.210
   174   7 N        1.870    -0.167    25.427     7.474
   175   6 C        3.199     0.042    26.516     8.393
   176   6 C        2.772     0.276    22.330     7.739
   177   8 O        0.860    -0.316    20.073     6.007
   178   7 N        2.715    -0.145    24.128     7.295
   179   6 C        2.840     0.239    23.016     7.862
   180   7 N        2.670    -0.192    25.179     7.452
   181   7 N        1.848    -0.236    27.030     7.705
   182   6 C        3.095     0.137    24.905     8.179
   183   1 H        0.925     0.075     2.027     2.226
   184   1 H        0.924     0.038     2.481     2.463
   185   1 H        0.924     0.076     2.022     2.224
   186   1 H        0.924     0.033     2.542     2.493
   187   1 H        0.924     0.086     1.920     2.167
   188   1 H        0.925     0.078     1.995     2.209
   189   1 H        0.924     0.101     1.775     2.084
   190   1 H        0.926     0.094     1.841     2.122
   191   1 H        0.860     0.300     0.713     1.323
   192   1 H        0.860     0.304     0.702     1.312
   193   1 H        0.860     0.278     0.783     1.386
   194  15 P        3.612     0.479   140.664    21.305
   195   8 O        0.808    -0.566    25.337     6.747
   196   8 O        0.808    -0.550    24.955     6.696
   197   8 O        1.656    -0.320    19.360     5.940
   198   6 C        3.882     0.082    19.174     6.226
   199   6 C        3.801     0.090    19.094     6.221
   200   8 O        1.702    -0.291    18.834     5.859
   201   6 C        3.916     0.124    18.507     6.114
   202   8 O        1.656    -0.332    19.583     5.974
   203   6 C        3.820    -0.079    21.983     6.673
   204   6 C        3.744     0.162    18.056     6.062
   205   7 N        2.822    -0.016    21.552     6.895
   206   6 C        3.138     0.115    25.246     8.223
   207   7 N        1.871    -0.174    25.572     7.496
   208   6 C        3.194     0.037    26.666     8.420
   209   6 C        2.771     0.280    22.269     7.729
   210   8 O        0.860    -0.320    20.152     6.019
   211   7 N        2.715    -0.136    23.939     7.267
   212   6 C        2.839     0.243    22.943     7.850
   213   7 N        2.669    -0.189    25.096     7.440
   214   7 N        1.847    -0.234    26.984     7.699
   215   6 C        3.092     0.130    25.048     8.203
   216   1 H        0.924     0.083     1.953     2.185
   217   1 H        0.925     0.040     2.447     2.446
   218   1 H        0.924     0.080     1.976     2.198
   219   1 H        0.924     0.031     2.573     2.508
   220   1 H        0.924     0.082     1.960     2.189
   221   1 H        0.925     0.076     2.023     2.224
   222   1 H        0.924     0.104     1.752     2.070
   223   1 H        0.926     0.089     1.885     2.147
   224   1 H        0.860     0.301     0.711     1.321
   225   1 H        0.860     0.300     0.714     1.324
   226   1 H        0.860     0.264     0.831     1.428
   227  15 P        3.609     0.476   140.795    21.315
   228   8 O        0.808    -0.568    25.368     6.752
   229   8 O        0.808    -0.556    25.087     6.714
   230   8 O        1.656    -0.320    19.369     5.941
   231   6 C        3.880     0.080    19.206     6.231
   232   6 C        3.795     0.089    19.118     6.226
   233   8 O        1.701    -0.291    18.831     5.859
   234   6 C        3.923     0.125    18.491     6.111
   235   8 O        1.656    -0.327    19.485     5.959
   236   6 C        3.822    -0.077    21.943     6.666
   237   6 C        3.741     0.162    18.068     6.065
   238   7 N        2.821    -0.017    21.583     6.900
   239   6 C        3.142     0.117    25.209     8.216
   240   7 N        1.870    -0.191    25.973     7.554
   241   6 C        3.196     0.033    26.745     8.431
   242   6 C        2.772     0.276    22.325     7.738
   243   8 O        0.860    -0.351    20.730     6.104
   244   7 N        2.715    -0.143    24.093     7.290
   245   6 C        2.839     0.248    22.849     7.834
   246   7 N        2.669    -0.193    25.189     7.454
   247   7 N        1.847    -0.240    27.113     7.717
   248   6 C        3.094     0.132    25.018     8.198
   249   1 H        0.924     0.087     1.913     2.163
   250   1 H        0.925     0.041     2.436     2.441
   251   1 H        0.924     0.082     1.961     2.190
   252   1 H        0.924     0.031     2.572     2.508
   253   1 H        0.924     0.078     2.005     2.214
   254   1 H        0.925     0.076     2.018     2.222
   255   1 H        0.924     0.106     1.733     2.058
   256   1 H        0.926     0.087     1.910     2.161
   257   1 H        0.860     0.291     0.739     1.347
   258   1 H        0.860     0.298     0.719     1.328
   259   1 H        0.860     0.272     0.803     1.403
   260  15 P        3.603     0.490   140.262    21.274
   261   8 O        0.808    -0.554    25.033     6.707
   262   8 O        0.808    -0.574    25.521     6.772
   263   8 O        1.657    -0.313    19.232     5.920
   264   6 C        3.873     0.087    19.091     6.213
   265   6 C        3.790     0.094    19.042     6.215
   266   8 O        1.701    -0.303    19.052     5.893
   267   6 C        3.753     0.105    18.911     6.201
   268   8 O        1.654    -0.503    22.947     6.467
   269   6 C        3.821    -0.096    22.317     6.723
   270   6 C        3.737     0.160    18.101     6.071
   271   7 N        2.822    -0.016    21.557     6.896
   272   6 C        3.136     0.115    25.261     8.226
   273   7 N        1.871    -0.210    26.409     7.618
   274   6 C        3.193     0.034    26.753     8.435
   275   6 C        2.771     0.283    22.217     7.720
   276   8 O        0.860    -0.385    21.374     6.198
   277   7 N        2.715    -0.132    23.856     7.254
   278   6 C        2.837     0.252    22.781     7.822
   279   7 N        2.667    -0.189    25.097     7.440
   280   7 N        1.846    -0.231    26.899     7.687
   281   6 C        3.089     0.133    25.002     8.196
   282   1 H        0.924     0.044     2.400     2.423
   283   1 H        0.924     0.059     2.208     2.324
   284   1 H        0.924     0.084     1.936     2.176
   285   1 H        0.924     0.040     2.446     2.446
   286   1 H        0.805     0.382     0.519     1.132
   287   1 H        0.924     0.074     2.041     2.234
   288   1 H        0.924     0.107     1.718     2.050
   289   1 H        0.925     0.123     1.587     1.970
   290   1 H        0.926     0.089     1.888     2.149
   291   1 H        0.860     0.293     0.736     1.344
   292   1 H        0.860     0.293     0.733     1.341
   293   1 H        0.860     0.284     0.763     1.368
   294   8 O        1.653    -0.463    22.112     6.348
   295   6 C        3.672     0.052    19.928     6.398
   296   6 C        3.779     0.097    19.011     6.212
   297   8 O        1.699    -0.287    18.763     5.848
   298   6 C        3.917     0.120    18.575     6.126
   299   8 O        1.656    -0.338    19.690     5.990
   300   6 C        3.820    -0.087    22.143     6.697
   301   6 C        3.719     0.171    17.961     6.053
   302   7 N        2.738    -0.023    21.684     6.916
   303   6 C        2.752     0.326    21.460     7.586
   304   8 O        0.862    -0.501    23.797     6.540
   305   7 N        1.868    -0.276    28.003     7.844
   306   6 C        2.881     0.200    23.747     7.989
   307   7 N        2.676    -0.182    24.945     7.418
   308   6 C        2.911    -0.064    29.599     8.921
   309   6 C        2.861     0.050    26.878     8.498
   310   1 H        0.925     0.089     1.886     2.148
   311   1 H        0.925     0.064     2.148     2.292
   312   1 H        0.925     0.072     2.063     2.246
   313   1 H        0.924     0.079     1.985     2.203
   314   1 H        0.924     0.124     1.580     1.966
   315   1 H        0.925     0.089     1.894     2.152
   316   1 H        0.924     0.098     1.803     2.100
   317   1 H        0.860     0.292     0.737     1.345
   318   1 H        0.860     0.295     0.727     1.335
   319   1 H        0.926     0.165     1.295     1.779
   320   1 H        0.926     0.144     1.430     1.870
   321   1 H        0.805     0.395     0.494     1.104
   322  15 P        3.612     0.516   139.295    21.201
   323   8 O        0.808    -0.566    25.335     6.747
   324   8 O        0.808    -0.535    24.596     6.648
   325   8 O        1.656    -0.319    19.340     5.937
   326   6 C        3.877     0.082    19.176     6.226
   327   6 C        3.794     0.092    19.073     6.219
   328   8 O        1.701    -0.289    18.806     5.855
   329   6 C        3.922     0.122    18.535     6.119
   330   8 O        1.656    -0.326    19.465     5.956
   331   6 C        3.821    -0.081    22.028     6.679
   332   6 C        3.745     0.168    17.971     6.047
   333   7 N        2.738    -0.032    21.860     6.944
   334   6 C        2.756     0.320    21.555     7.603
   335   8 O        0.863    -0.506    23.912     6.556
   336   7 N        1.872    -0.282    28.171     7.868
   337   6 C        2.884     0.192    23.908     8.016
   338   7 N        2.678    -0.176    24.817     7.399
   339   6 C        2.910    -0.079    29.976     8.978
   340   6 C        2.862     0.047    26.940     8.508
   341   1 H        0.924     0.077     2.008     2.216
   342   1 H        0.925     0.042     2.428     2.437
   343   1 H        0.924     0.080     1.982     2.202
   344   1 H        0.924     0.046     2.367     2.406
   345   1 H        0.924     0.102     1.764     2.077
   346   1 H        0.925     0.086     1.915     2.164
   347   1 H        0.925     0.098     1.801     2.099
   348   1 H        0.860     0.302     0.707     1.317
   349   1 H        0.860     0.292     0.738     1.345
   350   1 H        0.926     0.155     1.361     1.825
   351   1 H        0.926     0.106     1.733     2.058
   352  15 P        3.597     0.510   139.542    21.220
   353   8 O        0.808    -0.553    25.012     6.704
   354   8 O        0.808    -0.564    25.275     6.739
   355   8 O        1.657    -0.315    19.279     5.927
   356   6 C        3.868     0.090    19.049     6.206
   357   6 C        3.799     0.095    19.021     6.210
   358   8 O        1.702    -0.287    18.766     5.849
   359   6 C        3.920     0.116    18.630     6.134
   360   8 O        1.657    -0.332    19.586     5.974
   361   6 C        3.816    -0.089    22.183     6.703
   362   6 C        3.742     0.166    18.008     6.054
   363   7 N        2.739    -0.021    21.646     6.910
   364   6 C        2.755     0.317    21.623     7.615
   365   8 O        0.863    -0.505    23.896     6.554
   366   7 N        1.872    -0.267    27.793     7.815
   367   6 C        2.883     0.192    23.903     8.015
   368   7 N        2.678    -0.162    24.496     7.351
   369   6 C        2.911    -0.072    29.805     8.952
   370   6 C        2.860     0.046    26.955     8.510
   371   1 H        0.924     0.032     2.565     2.505
   372   1 H        0.925     0.071     2.070     2.250
   373   1 H        0.924     0.066     2.127     2.281
   374   1 H        0.924     0.053     2.287     2.365
   375   1 H        0.924     0.112     1.678     2.026
   376   1 H        0.925     0.099     1.791     2.093
   377   1 H        0.924     0.103     1.756     2.072
   378   1 H        0.860     0.319     0.659     1.272
   379   1 H        0.860     0.305     0.697     1.308
   380   1 H        0.926     0.161     1.317     1.794
   381   1 H        0.926     0.107     1.720     2.051
   382  15 P        3.613     0.505   139.693    21.231
   383   8 O        0.808    -0.567    25.351     6.749
   384   8 O        0.808    -0.543    24.776     6.672
   385   8 O        1.656    -0.314    19.261     5.924
   386   6 C        3.874     0.083    19.158     6.224
   387   6 C        3.806     0.094    19.030     6.210
   388   8 O        1.702    -0.285    18.736     5.844
   389   6 C        3.913     0.122    18.545     6.121
   390   8 O        1.656    -0.339    19.698     5.991
   391   6 C        3.816    -0.086    22.123     6.694
   392   6 C        3.742     0.161    18.073     6.065
   393   7 N        2.738    -0.014    21.521     6.890
   394   6 C        2.756     0.316    21.628     7.616
   395   8 O        0.863    -0.503    23.842     6.547
   396   7 N        1.869    -0.266    27.768     7.811
   397   6 C        2.884     0.198    23.802     7.998
   398   7 N        2.677    -0.147    24.187     7.304
   399   6 C        2.911    -0.060    29.487     8.904
   400   6 C        2.860     0.052    26.835     8.491
   401   1 H        0.924     0.080     1.976     2.199
   402   1 H        0.924     0.035     2.512     2.479
   403   1 H        0.924     0.066     2.126     2.280
   404   1 H        0.925     0.054     2.274     2.358
   405   1 H        0.924     0.104     1.749     2.068
   406   1 H        0.925     0.090     1.879     2.143
   407   1 H        0.925     0.108     1.718     2.049
   408   1 H        0.860     0.322     0.650     1.263
   409   1 H        0.860     0.312     0.679     1.290
   410   1 H        0.926     0.162     1.311     1.791
   411   1 H        0.926     0.108     1.711     2.045
   412  15 P        3.617     0.502   139.804    21.240
   413   8 O        0.808    -0.571    25.433     6.760
   414   8 O        0.808    -0.542    24.752     6.669
   415   8 O        1.656    -0.313    19.238     5.921
   416   6 C        3.880     0.082    19.167     6.225
   417   6 C        3.796     0.092    19.064     6.217
   418   8 O        1.701    -0.298    18.959     5.879
   419   6 C        3.912     0.125    18.490     6.112
   420   8 O        1.657    -0.344    19.789     6.005
   421   6 C        3.822    -0.089    22.173     6.701
   422   6 C        3.735     0.163    18.062     6.065
   423   7 N        2.820    -0.008    21.403     6.871
   424   6 C        3.143     0.111    25.329     8.235
   425   7 N        1.870    -0.159    25.226     7.445
   426   6 C        3.197     0.038    26.630     8.412
   427   6 C        2.772     0.277    22.310     7.736
   428   8 O        0.860    -0.315    20.052     6.004
   429   7 N        2.715    -0.132    23.855     7.254
   430   6 C        2.839     0.240    22.992     7.858
   431   7 N        2.669    -0.189    25.095     7.440
   432   7 N        1.848    -0.238    27.079     7.712
   433   6 C        3.093     0.133    24.990     8.193
   434   1 H        0.924     0.075     2.037     2.232
   435   1 H        0.924     0.036     2.504     2.475
   436   1 H        0.924     0.070     2.087     2.259
   437   1 H        0.924     0.033     2.537     2.491
   438   1 H        0.925     0.098     1.806     2.102
   439   1 H        0.925     0.094     1.842     2.122
   440   1 H        0.925     0.099     1.797     2.096
   441   1 H        0.926     0.105     1.739     2.062
   442   1 H        0.860     0.297     0.721     1.330
   443   1 H        0.860     0.302     0.707     1.317
   444   1 H        0.860     0.271     0.808     1.408
   445  15 P        3.612     0.501   139.842    21.243
   446   8 O        0.808    -0.580    25.673     6.792
   447   8 O        0.808    -0.538    24.670     6.658
   448   8 O        1.656    -0.312    19.228     5.919
   449   6 C        3.889     0.083    19.163     6.223
   450   6 C        3.782     0.092    19.080     6.222
   451   8 O        1.700    -0.287    18.774     5.850
   452   6 C        3.910     0.125    18.490     6.112
   453   8 O        1.656    -0.337    19.666     5.987
   454   6 C        3.819    -0.082    22.054     6.683
   455   6 C        3.722     0.166    18.027     6.063
   456   7 N        2.738    -0.041    22.032     6.971
   457   6 C        2.754     0.317    21.607     7.612
   458   8 O        0.863    -0.491    23.587     6.512
   459   7 N        1.870    -0.273    27.938     7.835
   460   6 C        2.883     0.186    24.026     8.036
   461   7 N        2.677    -0.177    24.827     7.400
   462   6 C        2.911    -0.082    30.045     8.988
   463   6 C        2.861     0.050    26.873     8.497
   464   1 H        0.925     0.077     2.014     2.220
   465   1 H        0.924     0.032     2.555     2.500
   466   1 H        0.924     0.074     2.039     2.233
   467   1 H        0.924     0.037     2.486     2.466
   468   1 H        0.925     0.093     1.849     2.126
   469   1 H        0.925     0.081     1.964     2.192
   470   1 H        0.925     0.103     1.756     2.073
   471   1 H        0.860     0.324     0.646     1.259
   472   1 H        0.860     0.288     0.751     1.358
   473   1 H        0.926     0.129     1.546     1.944
   474   1 H        0.926     0.081     1.972     2.196
   475  15 P        3.607     0.475   140.843    21.318
   476   8 O        0.808    -0.576    25.564     6.778
   477   8 O        0.808    -0.561    25.210     6.731
   478   8 O        1.656    -0.322    19.407     5.947
   479   6 C        3.879     0.090    19.046     6.205
   480   6 C        3.820     0.097    18.962     6.197
   481   8 O        1.703    -0.301    19.012     5.887
   482   6 C        3.914     0.126    18.476     6.109
   483   8 O        1.656    -0.342    19.767     6.002
   484   6 C        3.822    -0.084    22.091     6.689
   485   6 C        3.749     0.165    18.000     6.051
   486   7 N        2.739    -0.038    21.970     6.962
   487   6 C        2.756     0.317    21.614     7.613
   488   8 O        0.862    -0.504    23.866     6.550
   489   7 N        1.870    -0.267    27.791     7.814
   490   6 C        2.883     0.190    23.951     8.023
   491   7 N        2.677    -0.171    24.704     7.382
   492   6 C        2.910    -0.080    29.999     8.981
   493   6 C        2.861     0.048    26.907     8.502
   494   1 H        0.924     0.072     2.060     2.244
   495   1 H        0.924     0.034     2.523     2.484
   496   1 H        0.924     0.063     2.163     2.300
   497   1 H        0.924     0.044     2.399     2.422
   498   1 H        0.925     0.084     1.940     2.178
   499   1 H        0.925     0.088     1.895     2.153
   500   1 H        0.924     0.107     1.726     2.054
   501   1 H        0.860     0.322     0.651     1.264
   502   1 H        0.860     0.285     0.760     1.366
   503   1 H        0.926     0.129     1.543     1.943
   504   1 H        0.926     0.076     2.025     2.225
   505  15 P        3.600     0.476   140.782    21.314
   506   8 O        0.808    -0.573    25.486     6.767
   507   8 O        0.808    -0.570    25.411     6.757
   508   8 O        1.657    -0.323    19.421     5.949
   509   6 C        3.863     0.092    19.029     6.203
   510   6 C        3.779     0.095    19.033     6.215
   511   8 O        1.699    -0.298    18.955     5.878
   512   6 C        3.921     0.122    18.534     6.119
   513   8 O        1.657    -0.324    19.428     5.950
   514   6 C        3.822    -0.086    22.129     6.694
   515   6 C        3.724     0.166    18.034     6.064
   516   7 N        2.740    -0.041    22.036     6.972
   517   6 C        2.755     0.317    21.616     7.613
   518   8 O        0.862    -0.495    23.669     6.523
   519   7 N        1.870    -0.285    28.239     7.877
   520   6 C        2.883     0.189    23.975     8.027
   521   7 N        2.678    -0.186    25.038     7.432
   522   6 C        2.911    -0.083    30.088     8.995
   523   6 C        2.861     0.047    26.934     8.507
   524   1 H        0.924     0.037     2.494     2.470
   525   1 H        0.924     0.072     2.060     2.244
   526   1 H        0.924     0.068     2.109     2.271
   527   1 H        0.924     0.039     2.467     2.456
   528   1 H        0.924     0.085     1.924     2.169
   529   1 H        0.925     0.105     1.743     2.065
   530   1 H        0.924     0.120     1.617     1.989
   531   1 H        0.860     0.315     0.672     1.284
   532   1 H        0.860     0.270     0.811     1.410
   533   1 H        0.926     0.112     1.683     2.028
   534   1 H        0.926     0.070     2.081     2.256
   535  15 P        3.589     0.486   140.417    21.286
   536   8 O        0.808    -0.547    24.878     6.686
   537   8 O        0.808    -0.579    25.642     6.788
   538   8 O        1.656    -0.319    19.344     5.937
   539   6 C        3.858     0.086    19.126     6.220
   540   6 C        3.795     0.098    18.969     6.202
   541   8 O        1.700    -0.309    19.147     5.908
   542   6 C        3.739     0.110    18.845     6.194
   543   8 O        1.654    -0.509    23.078     6.485
   544   6 C        3.827    -0.100    22.378     6.731
   545   6 C        3.719     0.158    18.156     6.086
   546   7 N        2.738    -0.033    21.887     6.948
   547   6 C        2.755     0.320    21.556     7.603
   548   8 O        0.862    -0.485    23.453     6.493
   549   7 N        1.870    -0.289    28.331     7.890
   550   6 C        2.884     0.196    23.842     8.005
   551   7 N        2.678    -0.189    25.102     7.441
   552   6 C        2.911    -0.076    29.885     8.964
   553   6 C        2.860     0.047    26.943     8.508
   554   1 H        0.925     0.058     2.222     2.331
   555   1 H        0.924     0.056     2.241     2.341
   556   1 H        0.924     0.072     2.067     2.248
   557   1 H        0.924     0.048     2.345     2.395
   558   1 H        0.805     0.390     0.504     1.115
   559   1 H        0.924     0.097     1.814     2.106
   560   1 H        0.924     0.102     1.763     2.077
   561   1 H        0.925     0.128     1.552     1.948
   562   1 H        0.860     0.298     0.718     1.327
   563   1 H        0.860     0.270     0.810     1.410
   564   1 H        0.926     0.112     1.681     2.028
   565   1 H        0.926     0.086     1.919     2.166

 Mol. C6AA /au·bohr⁶  :    4314143.198729
 Mol. C8AA /au·bohr⁸  :  108200206.898634
 Mol. α(0) /au        :       3145.775575


Wiberg/Mayer (AO) data.
largest (>0.10) Wiberg bond orders for each atom

 ---------------------------------------------------------------------------
     #   Z sym  total        # sym  WBO       # sym  WBO       # sym  WBO
 ---------------------------------------------------------------------------
     1   8 O    1.878 --     2 C    1.007    31 H    0.829
     2   6 C    3.905 --     1 O    1.007     3 C    0.967    21 H    0.953
                            20 H    0.943
     3   6 C    3.926 --     4 O    0.970     2 C    0.967     5 C    0.967
                            22 H    0.949
     4   8 O    2.079 --     8 C    0.978     3 C    0.970
     5   6 C    3.914 --     7 C    0.988     3 C    0.967    23 H    0.953
                             6 O    0.928
     6   8 O    2.269 --    32 P    1.125     5 C    0.928
     7   6 C    3.967 --     5 C    0.988     8 C    0.973    25 H    0.962
                            24 H    0.959
     8   6 C    3.909 --     4 O    0.978     7 C    0.973     9 N    0.956
                            26 H    0.930
     9   7 N    3.622 --    10 C    1.249    19 C    1.158     8 C    0.956
    10   6 C    3.820 --    11 N    1.512     9 N    1.249    27 H    0.945
[...]
   290   1 H    0.991 --   272 C    0.957
   291   1 H    0.914 --   277 N    0.835
   292   1 H    0.913 --   279 N    0.853
   293   1 H    0.918 --   279 N    0.899
   294   8 O    1.890 --   295 C    1.009   321 H    0.833
   295   6 C    3.925 --   294 O    1.009   296 C    0.980   311 H    0.951
                           310 H    0.950
   296   6 C    3.935 --   295 C    0.980   297 O    0.967   298 C    0.967
                           312 H    0.945
   297   8 O    2.070 --   301 C    0.978   296 C    0.967
   298   6 C    3.900 --   300 C    0.981   296 C    0.967   313 H    0.952
                           299 O    0.920
   299   8 O    2.266 --   322 P    1.129   298 C    0.920
   300   6 C    3.938 --   298 C    0.981   315 H    0.961   314 H    0.958
                           301 C    0.957
   301   6 C    3.903 --   297 O    0.978   302 N    0.964   300 C    0.957
                           316 H    0.931
   302   7 N    3.496 --   309 C    1.230   303 C    1.055   301 C    0.964
   303   6 C    3.940 --   304 O    1.551   305 N    1.245   302 N    1.055
   304   8 O    1.917 --   303 C    1.551   305 N    0.132
   305   7 N    2.994 --   306 C    1.324   303 C    1.245   304 O    0.132
   306   6 C    3.958 --   307 N    1.428   305 N    1.324   308 C    1.126
   307   7 N    3.398 --   306 C    1.428   318 H    0.893   317 H    0.860
   308   6 C    3.784 --   309 C    1.588   306 C    1.126   319 H    0.935
   309   6 C    3.900 --   308 C    1.588   302 N    1.230   320 H    0.936
   310   1 H    0.973 --   295 C    0.950
   311   1 H    0.973 --   295 C    0.951
   312   1 H    0.980 --   296 C    0.945
   313   1 H    0.988 --   298 C    0.952
   314   1 H    0.982 --   300 C    0.958
   315   1 H    0.992 --   300 C    0.961
   316   1 H    0.967 --   301 C    0.931
   317   1 H    0.912 --   307 N    0.860
   318   1 H    0.912 --   307 N    0.893
   319   1 H    0.966 --   308 C    0.935
   320   1 H    0.967 --   309 C    0.936
   321   1 H    0.843 --   294 O    0.833
   322  15 P    5.699 --   324 O    1.714   323 O    1.683   299 O    1.129
                           325 O    1.118
   323   8 O    1.862 --   322 P    1.683
   324   8 O    1.898 --   322 P    1.714
   325   8 O    2.268 --   322 P    1.118   326 C    0.945
   326   6 C    3.926 --   327 C    0.981   342 H    0.970   341 H    0.965
                           325 O    0.945
   327   6 C    3.951 --   326 C    0.981   328 O    0.977   329 C    0.967
                           343 H    0.947
   328   8 O    2.065 --   327 C    0.977   332 C    0.962
   329   6 C    3.912 --   331 C    0.983   327 C    0.967   344 H    0.960
                           330 O    0.924
   330   8 O    2.282 --   352 P    1.149   329 C    0.924
   331   6 C    3.952 --   329 C    0.983   332 C    0.965   346 H    0.965
                           345 H    0.961
   332   6 C    3.911 --   333 N    0.973   331 C    0.965   328 O    0.962
                           347 H    0.939
   333   7 N    3.518 --   340 C    1.222   334 C    1.051   332 C    0.973
   334   6 C    3.939 --   335 O    1.551   336 N    1.248   333 N    1.051
   335   8 O    1.929 --   334 C    1.551   336 N    0.131
   336   7 N    3.003 --   337 C    1.318   334 C    1.248   335 O    0.131
   337   6 C    3.966 --   338 N    1.435   336 N    1.318   339 C    1.130
   338   7 N    3.423 --   337 C    1.435   349 H    0.895   348 H    0.856
   339   6 C    3.842 --   340 C    1.606   337 C    1.130   350 H    0.940
   340   6 C    3.918 --   339 C    1.606   333 N    1.222   351 H    0.943
   341   1 H    0.993 --   326 C    0.965
   342   1 H    0.997 --   326 C    0.970
   343   1 H    0.984 --   327 C    0.947
   344   1 H    0.993 --   329 C    0.960
   345   1 H    0.987 --   331 C    0.961
   346   1 H    0.992 --   331 C    0.965
   347   1 H    0.979 --   332 C    0.939
   348   1 H    0.906 --   338 N    0.856
   349   1 H    0.914 --   338 N    0.895
   350   1 H    0.970 --   339 C    0.940
   351   1 H    0.979 --   340 C    0.943
   352  15 P    5.704 --   354 O    1.690   353 O    1.689   330 O    1.149
                           355 O    1.116
   353   8 O    1.874 --   352 P    1.689
   354   8 O    1.883 --   352 P    1.690
   355   8 O    2.263 --   352 P    1.116   356 C    0.941
   356   6 C    3.926 --   357 C    0.984   371 H    0.970   372 H    0.964
                           355 O    0.941
   357   6 C    3.956 --   356 C    0.984   358 O    0.979   359 C    0.963
                           373 H    0.953
   358   8 O    2.072 --   357 C    0.979   362 C    0.967
   359   6 C    3.904 --   361 C    0.977   357 C    0.963   374 H    0.958
                           360 O    0.926
   360   8 O    2.274 --   382 P    1.130   359 C    0.926
   361   6 C    3.940 --   359 C    0.977   375 H    0.965   376 H    0.963
                           362 C    0.955
   362   6 C    3.907 --   363 N    0.977   358 O    0.967   361 C    0.955
                           377 H    0.934
   363   7 N    3.509 --   370 C    1.229   364 C    1.046   362 C    0.977
   364   6 C    3.939 --   365 O    1.552   366 N    1.252   363 N    1.046
   365   8 O    1.930 --   364 C    1.552   366 N    0.134
   366   7 N    3.010 --   367 C    1.316   364 C    1.252   365 O    0.134
   367   6 C    3.967 --   368 N    1.443   366 N    1.316   369 C    1.127
   368   7 N    3.402 --   367 C    1.443   379 H    0.887   378 H    0.845
   369   6 C    3.810 --   370 C    1.590   367 C    1.127   380 H    0.937
   370   6 C    3.913 --   369 C    1.590   363 N    1.229   381 H    0.949
   371   1 H    0.996 --   356 C    0.970
   372   1 H    0.994 --   356 C    0.964
   373   1 H    0.990 --   357 C    0.953
   374   1 H    0.993 --   359 C    0.958
   375   1 H    0.986 --   361 C    0.965
   376   1 H    0.990 --   361 C    0.963
   377   1 H    0.974 --   362 C    0.934
   378   1 H    0.896 --   368 N    0.845
   379   1 H    0.906 --   368 N    0.887
   380   1 H    0.968 --   369 C    0.937
   381   1 H    0.979 --   370 C    0.949
   382  15 P    5.715 --   384 O    1.709   383 O    1.687   385 O    1.132
                           360 O    1.130
   383   8 O    1.866 --   382 P    1.687
   384   8 O    1.893 --   382 P    1.709
   385   8 O    2.280 --   382 P    1.132   386 C    0.939
   386   6 C    3.928 --   387 C    0.987   402 H    0.971   401 H    0.964
                           385 O    0.939
   387   6 C    3.961 --   386 C    0.987   388 O    0.980   389 C    0.964
                           403 H    0.952
   388   8 O    2.074 --   387 C    0.980   392 C    0.966
   389   6 C    3.899 --   391 C    0.974   387 C    0.964   404 H    0.959
                           390 O    0.923
   390   8 O    2.266 --   412 P    1.128   389 C    0.923
   391   6 C    3.942 --   389 C    0.974   405 H    0.966   406 H    0.965
                           392 C    0.955
   392   6 C    3.909 --   393 N    0.977   388 O    0.966   391 C    0.955
                           407 H    0.937
   393   7 N    3.503 --   400 C    1.236   394 C    1.043   392 C    0.977
   394   6 C    3.938 --   395 O    1.553   396 N    1.253   393 N    1.043
   395   8 O    1.936 --   394 C    1.553   396 N    0.137
   396   7 N    3.017 --   397 C    1.316   394 C    1.253   395 O    0.137
   397   6 C    3.966 --   398 N    1.447   396 N    1.316   399 C    1.123
   398   7 N    3.386 --   397 C    1.447   409 H    0.883   408 H    0.840
   399   6 C    3.787 --   400 C    1.578   397 C    1.123   410 H    0.938
   400   6 C    3.906 --   399 C    1.578   393 N    1.236   411 H    0.947
   401   1 H    0.993 --   386 C    0.964
   402   1 H    0.998 --   386 C    0.971
   403   1 H    0.992 --   387 C    0.952
   404   1 H    0.993 --   389 C    0.959
   405   1 H    0.988 --   391 C    0.966
   406   1 H    0.991 --   391 C    0.965
   407   1 H    0.977 --   392 C    0.937
   408   1 H    0.894 --   398 N    0.840
   409   1 H    0.901 --   398 N    0.883
   410   1 H    0.969 --   399 C    0.938
   411   1 H    0.979 --   400 C    0.947
   412  15 P    5.720 --   414 O    1.715   413 O    1.690   415 O    1.130
                           390 O    1.128
   413   8 O    1.871 --   412 P    1.690
   414   8 O    1.900 --   412 P    1.715
   415   8 O    2.275 --   412 P    1.130   416 C    0.940
   416   6 C    3.927 --   417 C    0.983   435 H    0.971   434 H    0.965
                           415 O    0.940
   417   6 C    3.958 --   416 C    0.983   418 O    0.977   419 C    0.967
                           436 H    0.953
   418   8 O    2.071 --   417 C    0.977   422 C    0.962
   419   6 C    3.919 --   421 C    0.985   417 C    0.967   437 H    0.965
                           420 O    0.925
   420   8 O    2.262 --   445 P    1.117   419 C    0.925
   421   6 C    3.975 --   419 C    0.985   422 C    0.979   438 H    0.964
                           439 H    0.961
   422   6 C    3.924 --   421 C    0.979   423 N    0.969   418 O    0.962
                           440 H    0.946
   423   7 N    3.624 --   424 C    1.240   433 C    1.156   422 C    0.969
   424   6 C    3.834 --   425 N    1.530   423 N    1.240   441 H    0.951
   425   7 N    2.988 --   424 C    1.530   426 C    1.259
   426   6 C    3.789 --   425 N    1.259   433 C    1.243   427 C    1.078
   427   6 C    3.955 --   428 O    1.663   429 N    1.131   426 C    1.078
   428   8 O    1.998 --   427 C    1.663   429 N    0.135
   429   7 N    3.532 --   430 C    1.210   427 C    1.131   442 H    0.834
                           428 O    0.135
   430   6 C    3.957 --   431 N    1.420   432 N    1.263   429 N    1.210
   431   7 N    3.405 --   430 C    1.420   444 H    0.906   443 H    0.846
   432   7 N    2.815 --   433 C    1.320   430 C    1.263
   433   6 C    3.885 --   432 N    1.320   426 C    1.243   423 N    1.156
   434   1 H    0.993 --   416 C    0.965
   435   1 H    0.998 --   416 C    0.971
   436   1 H    0.992 --   417 C    0.953
   437   1 H    0.998 --   419 C    0.965
   438   1 H    0.990 --   421 C    0.964
   439   1 H    0.991 --   421 C    0.961
   440   1 H    0.987 --   422 C    0.946
   441   1 H    0.988 --   424 C    0.951
   442   1 H    0.911 --   429 N    0.834
   443   1 H    0.908 --   431 N    0.846
   444   1 H    0.926 --   431 N    0.906
   445  15 P    5.714 --   447 O    1.730   446 O    1.686   448 O    1.125
                           420 O    1.117
   446   8 O    1.875 --   445 P    1.686
   447   8 O    1.920 --   445 P    1.730
   448   8 O    2.273 --   445 P    1.125   449 C    0.944
   449   6 C    3.928 --   450 C    0.981   465 H    0.970   464 H    0.965
                           448 O    0.944
   450   6 C    3.956 --   449 C    0.981   451 O    0.979   452 C    0.969
                           466 H    0.949
   451   8 O    2.071 --   450 C    0.979   455 C    0.966
   452   6 C    3.915 --   454 C    0.984   450 C    0.969   467 H    0.961
                           453 O    0.922
   453   8 O    2.273 --   475 P    1.131   452 C    0.922
   454   6 C    3.965 --   452 C    0.984   455 C    0.972   468 H    0.964
                           469 H    0.962
   455   6 C    3.915 --   454 C    0.972   456 N    0.967   451 O    0.966
                           470 H    0.941
   456   7 N    3.515 --   463 C    1.226   457 C    1.048   455 C    0.967
   457   6 C    3.936 --   458 O    1.551   459 N    1.247   456 N    1.048
   458   8 O    1.927 --   457 C    1.551   459 N    0.127
   459   7 N    2.993 --   460 C    1.321   457 C    1.247   458 O    0.127
   460   6 C    3.972 --   461 N    1.435   459 N    1.321   462 C    1.134
   461   7 N    3.411 --   460 C    1.435   472 H    0.897   471 H    0.839
   462   6 C    3.847 --   463 C    1.604   460 C    1.134   473 H    0.947
   463   6 C    3.926 --   462 C    1.604   456 N    1.226   474 H    0.949
   464   1 H    0.994 --   449 C    0.965
   465   1 H    0.997 --   449 C    0.970
   466   1 H    0.986 --   450 C    0.949
   467   1 H    0.996 --   452 C    0.961
   468   1 H    0.989 --   454 C    0.964
   469   1 H    0.993 --   454 C    0.962
   470   1 H    0.980 --   455 C    0.941
   471   1 H    0.893 --   461 N    0.839
   472   1 H    0.916 --   461 N    0.897
   473   1 H    0.979 --   462 C    0.947
   474   1 H    0.985 --   463 C    0.949
   475  15 P    5.753 --   477 O    1.726   476 O    1.708   453 O    1.131
                           478 O    1.130
   476   8 O    1.898 --   475 P    1.708
   477   8 O    1.919 --   475 P    1.726
   478   8 O    2.276 --   475 P    1.130   479 C    0.937
   479   6 C    3.929 --   480 C    0.988   495 H    0.971   494 H    0.965
                           478 O    0.937
   480   6 C    3.961 --   479 C    0.988   481 O    0.979   482 C    0.966
                           496 H    0.953
   481   8 O    2.072 --   480 C    0.979   485 C    0.966
   482   6 C    3.908 --   484 C    0.978   480 C    0.966   497 H    0.964
                           483 O    0.924
   483   8 O    2.273 --   505 P    1.143   482 C    0.924
   484   6 C    3.960 --   482 C    0.978   498 H    0.970   499 H    0.967
                           485 C    0.964
   485   6 C    3.913 --   486 N    0.972   481 O    0.966   484 C    0.964
                           500 H    0.941
   486   7 N    3.510 --   493 C    1.228   487 C    1.045   485 C    0.972
   487   6 C    3.937 --   488 O    1.546   489 N    1.255   486 N    1.045
   488   8 O    1.928 --   487 C    1.546   489 N    0.134
   489   7 N    3.007 --   490 C    1.322   487 C    1.255   488 O    0.134
   490   6 C    3.971 --   491 N    1.436   489 N    1.322   492 C    1.130
   491   7 N    3.404 --   490 C    1.436   502 H    0.899   501 H    0.844
   492   6 C    3.838 --   493 C    1.603   490 C    1.130   503 H    0.948
   493   6 C    3.927 --   492 C    1.603   486 N    1.228   504 H    0.953
   494   1 H    0.994 --   479 C    0.965
   495   1 H    0.998 --   479 C    0.971
   496   1 H    0.994 --   480 C    0.953
   497   1 H    0.997 --   482 C    0.964
   498   1 H    0.993 --   484 C    0.970
   499   1 H    0.992 --   484 C    0.967
   500   1 H    0.981 --   485 C    0.941
   501   1 H    0.894 --   491 N    0.844
   502   1 H    0.918 --   491 N    0.899
   503   1 H    0.979 --   492 C    0.948
   504   1 H    0.986 --   493 C    0.953
   505  15 P    5.741 --   507 O    1.721   506 O    1.707   483 O    1.143
                           508 O    1.111
   506   8 O    1.902 --   505 P    1.707
   507   8 O    1.933 --   505 P    1.721
   508   8 O    2.256 --   505 P    1.111   509 C    0.940
   509   6 C    3.914 --   510 C    0.973   524 H    0.967   525 H    0.961
                           508 O    0.940
   510   6 C    3.951 --   511 O    0.980   509 C    0.973   512 C    0.967
                           526 H    0.953
   511   8 O    2.072 --   510 C    0.980   515 C    0.965
   512   6 C    3.921 --   514 C    0.983   510 C    0.967   527 H    0.956
                           513 O    0.935
   513   8 O    2.284 --   535 P    1.130   512 C    0.935
   514   6 C    3.962 --   512 C    0.983   515 C    0.970   528 H    0.967
                           529 H    0.961
   515   6 C    3.906 --   514 C    0.970   516 N    0.967   511 O    0.965
                           530 H    0.934
   516   7 N    3.523 --   523 C    1.230   517 C    1.045   515 C    0.967
   517   6 C    3.939 --   518 O    1.548   519 N    1.254   516 N    1.045
   518   8 O    1.928 --   517 C    1.548   519 N    0.131
   519   7 N    3.010 --   520 C    1.325   517 C    1.254   518 O    0.131
   520   6 C    3.973 --   521 N    1.426   519 N    1.325   522 C    1.138
   521   7 N    3.416 --   520 C    1.426   532 H    0.907   531 H    0.849
   522   6 C    3.862 --   523 C    1.605   520 C    1.138   533 H    0.953
   523   6 C    3.938 --   522 C    1.605   516 N    1.230   534 H    0.954
   524   1 H    0.993 --   509 C    0.967
   525   1 H    0.994 --   509 C    0.961
   526   1 H    0.991 --   510 C    0.953
   527   1 H    0.995 --   512 C    0.956
   528   1 H    0.991 --   514 C    0.967
   529   1 H    0.989 --   514 C    0.961
   530   1 H    0.972 --   515 C    0.934
   531   1 H    0.900 --   521 N    0.849
   532   1 H    0.926 --   521 N    0.907
   533   1 H    0.985 --   522 C    0.953
   534   1 H    0.990 --   523 C    0.954
   535  15 P    5.736 --   536 O    1.719   537 O    1.682   538 O    1.148
                           513 O    1.130
   536   8 O    1.899 --   535 P    1.719
   537   8 O    1.876 --   535 P    1.682
   538   8 O    2.284 --   535 P    1.148   539 C    0.928
   539   6 C    3.919 --   540 C    0.986   554 H    0.968   555 H    0.965
                           538 O    0.928
   540   6 C    3.945 --   539 C    0.986   541 O    0.970   542 C    0.966
                           556 H    0.952
   541   8 O    2.070 --   545 C    0.973   540 C    0.970
   542   6 C    3.938 --   543 O    0.997   544 C    0.972   540 C    0.966
                           557 H    0.959
   543   8 O    1.898 --   542 C    0.997   558 H    0.835
   544   6 C    3.947 --   542 C    0.972   559 H    0.970   560 H    0.967
                           545 C    0.964
   545   6 C    3.897 --   541 O    0.973   544 C    0.964   546 N    0.957
                           561 H    0.932
   546   7 N    3.511 --   553 C    1.237   547 C    1.051   545 C    0.957
   547   6 C    3.943 --   548 O    1.552   549 N    1.250   546 N    1.051
   548   8 O    1.924 --   547 C    1.552   549 N    0.131
   549   7 N    3.010 --   550 C    1.332   547 C    1.250   548 O    0.131
   550   6 C    3.969 --   551 N    1.421   549 N    1.332   552 C    1.133
   551   7 N    3.415 --   550 C    1.421   563 H    0.907   562 H    0.856
   552   6 C    3.845 --   553 C    1.604   550 C    1.133   564 H    0.953
   553   6 C    3.938 --   552 C    1.604   546 N    1.237   565 H    0.954
   554   1 H    0.996 --   539 C    0.968
   555   1 H    0.996 --   539 C    0.965
   556   1 H    0.988 --   540 C    0.952
   557   1 H    0.996 --   542 C    0.959
   558   1 H    0.848 --   543 O    0.835
   559   1 H    0.990 --   544 C    0.970
   560   1 H    0.989 --   544 C    0.967
   561   1 H    0.968 --   545 C    0.932
   562   1 H    0.909 --   551 N    0.856
   563   1 H    0.926 --   551 N    0.907
   564   1 H    0.984 --   552 C    0.953
   565   1 H    0.986 --   553 C    0.954
 ---------------------------------------------------------------------------

Topologies differ in total number of bonds
Writing topology from bond orders to xtbtopo.mol

molecular dipole:
                 x           y           z       tot (Debye)
 q only:        0.222     -12.595     -57.947
   full:        0.696     -11.426     -51.925     135.150
molecular quadrupole (traceless):
                xx          xy          yy          xz          yz          zz
 q only:    -1297.699   -1298.794    2310.877     385.116    -282.107   -1013.178
  q+dip:    -1276.388   -1125.228    2217.032     356.818    -349.997    -940.644
   full:    -1295.638   -1131.081    2258.239     355.051    -354.993    -962.601


           -------------------------------------------------
          | TOTAL ENERGY            -1146.365306170538 Eh   |
          | GRADIENT NORM               0.476928135876 Eh/α |
          | HOMO-LUMO GAP               0.002678939819 eV   |
           -------------------------------------------------

------------------------------------------------------------------------
 * finished run on 2023/04/12 at 14:26:18.253     
------------------------------------------------------------------------
 total:
 * wall-time:     0 d,  0 h,  0 min, 24.954 sec
 *  cpu-time:     0 d,  0 h,  4 min,  6.001 sec
 * ratio c/w:     9.858 speedup
 SCF:
 * wall-time:     0 d,  0 h,  0 min, 24.187 sec
 *  cpu-time:     0 d,  0 h,  3 min, 59.743 sec
 * ratio c/w:     9.912 speedup

