      -----------------------------------------------------------      
     |                   =====================                   |     
     |                           x T B                           |     
     |                   =====================                   |     
     |                         S. Grimme                         |     
     |          Mulliken Center for Theoretical Chemistry        |     
     |                    University of Bonn                     |     
      -----------------------------------------------------------      

   * xtb version 6.5.1 (579679a) compiled by 'ehlert@majestix' on 2022-07-11

   xtb is free software: you can redistribute it and/or modify it under
   the terms of the GNU Lesser General Public License as published by
   the Free Software Foundation, either version 3 of the License, or
   (at your option) any later version.
   
   xtb is distributed in the hope that it will be useful,
   but WITHOUT ANY WARRANTY; without even the implied warranty of
   MERCHANTABILITY or FITNESS FOR A PARTICULAR PURPOSE.  See the
   GNU Lesser General Public License for more details.
   
   Cite this work as:
   * C. Bannwarth, E. Caldeweyher, S. Ehlert, A. Hansen, P. Pracht,
     J. Seibert, S. Spicher, S. Grimme, WIREs Comput. Mol. Sci., 2020, 11,
     e01493. DOI: 10.1002/wcms.1493
   
   for GFN2-xTB:
   * C. Bannwarth, S. Ehlert and S. Grimme., J. Chem. Theory Comput., 2019,
     15, 1652-1671. DOI: 10.1021/acs.jctc.8b01176
   for GFN1-xTB:
   * S. Grimme, C. Bannwarth, P. Shushkov, J. Chem. Theory Comput., 2017,
     13, 1989-2009. DOI: 10.1021/acs.jctc.7b00118
   for GFN0-xTB:
   * P. Pracht, E. Caldeweyher, S. Ehlert, S. Grimme, ChemRxiv, 2019, preprint.
     DOI: 10.26434/chemrxiv.8326202.v1
   for GFN-FF:
   * S. Spicher and S. Grimme, Angew. Chem. Int. Ed., 2020, 59, 15665-15673.
     DOI: 10.1002/anie.202004239
   
   for ALPB and GBSA implicit solvation:
   * S. Ehlert, M. Stahn, S. Spicher, S. Grimme, J. Chem. Theory Comput.,
     2021, 17, 4250-4261. DOI: 10.1021/acs.jctc.1c00471
   
   for DFT-D4:
   * E. Caldeweyher, C. Bannwarth and S. Grimme, J. Chem. Phys., 2017,
     147, 034112. DOI: 10.1063/1.4993215
   * E. Caldeweyher, S. Ehlert, A. Hansen, H. Neugebauer, S. Spicher,
     C. Bannwarth and S. Grimme, J. Chem. Phys., 2019, 150, 154122.
     DOI: 10.1063/1.5090222
   * E. Caldeweyher, J.-M. Mewes, S. Ehlert and S. Grimme, Phys. Chem. Chem. Phys.
     2020, 22, 8499-8512. DOI: 10.1039/D0CP00502A
   
   for sTDA-xTB:
   * S. Grimme and C. Bannwarth, J. Chem. Phys., 2016, 145, 054103.
     DOI: 10.1063/1.4959605
   
   in the mass-spec context:
   * V. Asgeirsson, C. Bauer and S. Grimme, Chem. Sci., 2017, 8, 4879.
     DOI: 10.1039/c7sc00601b
   * J. Koopman and S. Grimme, ACS Omega 2019, 4, 12, 15120-15133.
     DOI: 10.1021/acsomega.9b02011
   
   for metadynamics refer to:
   * S. Grimme, J. Chem. Theory Comput., 2019, 155, 2847-2862
     DOI: 10.1021/acs.jctc.9b00143
   
   for SPH calculations refer to:
   * S. Spicher and S. Grimme, J. Chem. Theory Comput., 2021, 17, 1701-1714
     DOI: 10.1021/acs.jctc.0c01306
   
   with help from (in alphabetical order)
   P. Atkinson, C. Bannwarth, F. Bohle, G. Brandenburg, E. Caldeweyher
   M. Checinski, S. Dohm, S. Ehlert, S. Ehrlich, I. Gerasimov, C. Hölzer
   A. Katbashev, J. Koopman, C. Lavigne, S. Lehtola, F. März, M. Müller,
   F. Musil, H. Neugebauer, J. Pisarek, C. Plett, P. Pracht, F. Pultar,
   J. Seibert, P. Shushkov, S. Spicher, M. Stahn, M. Steiner, T. Strunk,
   J. Stückrath, T. Rose, and J. Unsleber
   
 * started run on 2023/04/11 at 13:22:30.569     

           -------------------------------------------------
          |                Calculation Setup                |
           -------------------------------------------------

          program call               : /N/u/schandy/BigRed3/bin/xtb-6.5.1/bin/xtb 6GMY_min.xyz --gbsa water
          hostname                   : nid00469
          coordinate file            : 6GMY_min.xyz
          omp threads                :                    10

   ID    Z sym.   atoms
    1    8 O      1, 4, 14, 20, 43-45, 48, 51, 53, 59, 75-77, 80, 90, 96,
                  118-120, 123, 127, 136, 156-158, 161, 165, 174, 189-191,
                  194, 204, 210, 232-234, 237, 240, 242, 248, 269-271, 274,
                  277, 279, 285, 300, 302, 304, 310, 313, 338-340, 343, 353,
                  359, 376, 379, 381, 383, 390, 409-411, 414, 416, 418, 422,
                  425, 439-441, 444, 446, 448, 472-474, 477, 479, 481,
                  505-507, 510, 512, 514, 521, 539-541, 544, 546, 548, 552,
                  570-572, 575, 577, 579, 583, 601-603, 606, 608, 610, 617,
                  635-637, 640, 642, 644, 668-670, 673, 675, 677, 684
    2    6 C      2, 3, 5, 7-10, 13, 15-19, 37-41, 46, 47, 49, 54-58, 78, 79,
                  81, 83-86, 89, 91-95, 112-116, 121, 122, 124, 131-135,
                  150-154, 159, 160, 162, 169-173, 192, 193, 195, 197-200,
                  203, 205-209, 226-230, 235, 236, 238, 243-247, 263-267,
                  272, 273, 275, 280-284, 303, 305-309, 311, 312, 315, 317,
                  319, 321, 323, 341, 342, 344, 346-349, 352, 354-358, 377,
                  378, 380, 382, 384, 386, 388, 389, 392, 395, 412, 413, 415,
                  417, 419, 421, 424, 426, 427, 442, 443, 445, 447, 449, 451,
                  453, 454, 457, 459, 475, 476, 478, 480, 482, 484, 486, 487,
                  490, 492, 508, 509, 511, 513, 515, 517, 519, 520, 523, 526,
                  542, 543, 545, 547, 549, 551, 554, 556, 557, 573, 574, 576,
                  578, 580, 582, 585, 587, 588, 604, 605, 607, 609, 611, 613,
                  615, 616, 619, 622, 638, 639, 641, 643, 645, 647, 649, 650,
                  653, 655, 671, 672, 674, 676, 678, 680, 682, 683, 686, 689
    3    7 N      6, 11, 12, 50, 52, 82, 87, 88, 125, 126, 128-130, 163, 164,
                  166-168, 196, 201, 202, 239, 241, 276, 278, 314, 316, 318,
                  320, 322, 345, 350, 351, 385, 387, 391, 393, 394, 420, 423,
                  450, 452, 455, 456, 458, 483, 485, 488, 489, 491, 516, 518,
                  522, 524, 525, 550, 553, 555, 581, 584, 586, 612, 614, 618,
                  620, 621, 646, 648, 651, 652, 654, 679, 681, 685, 687, 688
    4    1 H      21-36, 60-73, 97-111, 137-149, 175-187, 211-225, 249-262,
                  286-299, 324-336, 360-375, 396-407, 428-437, 460-470,
                  493-503, 527-537, 558-568, 589-599, 623-633, 656-666,
                  690-701
    5   15 P      42, 74, 117, 155, 188, 231, 268, 301, 337, 408, 438, 471,
                  504, 538, 569, 600, 634, 667

molecular fragmentation (1/2 indicates fragments):
111111111111111111111111111111111111111111111111111111111111111111111111
111111111111111111111111111111111111111111111111111111111111111111111111
111111111111111111111111111111111111111111111111111111111111111111111111
111111111111111111111111111111111111111111111111111111111111111111111111
111111111111111111111111111111111111111111111111111111111111111111111111
111111111111111222222222222222222222222222222222222222222222222222222222
222222222222222222222222222222222222222222222222222222222222222222222222
222222222222222222222222222222222222222222222222222222222222222222222222
222222222222222222222222222222222222222222222222222222222222222222222222
22222222222222222222222222222222222222222222222222222
# atoms in fragment 1/2:   375   326
 fragment masses (1/2) :     3406.48     3213.94
CMA distance (Bohr)    :   5.472
constraining FC (au)   :  0.0500

           -------------------------------------------------
          |                 G F N 2 - x T B                 |
           -------------------------------------------------

        Reference                      10.1021/acs.jctc.8b01176
      * Hamiltonian:
        H0-scaling (s, p, d)           1.850000    2.230000    2.230000
        zeta-weighting                 0.500000
      * Dispersion:
        s8                             2.700000
        a1                             0.520000
        a2                             5.000000
        s9                             5.000000
      * Repulsion:
        kExp                           1.500000    1.000000
        rExp                           1.000000
      * Coulomb:
        alpha                          2.000000
        third order                    shell-resolved
        anisotropic                    true
        a3                             3.000000
        a5                             4.000000
        cn-shift                       1.200000
        cn-exp                         4.000000
        max-rad                        5.000000

      * Solvation model:               GBSA
        Solvent                        water
        Parameter file                 internal GFN2-xTB/GBSA
        Dielectric constant                8.0200E+01
        Reference state                gsolv [1 M gas/solution]
        Free energy shift                  1.8574E-03 Eh       1.1656E+00 kcal/mol
        Temperature                        2.9815E+02 K
        Density                            1.0000E+00 kg/L
        Solvent mass                       1.8000E+01 g/mol
        Interaction kernel             Still
        Born radius scaling (c1)           1.5524E+00
        Born radii integrator          GBOBC
        Born offset                        2.4628E-02 a0       4.6540E-02 AA
        H-bond correction              true
        Ion screening                  false
        Surface tension                    1.0000E-05 Eh       1.5569E+01 dyn/cm
        Grid points                               230 per atom
q/qsh data taken from xtbrestart
CAMM data taken from xtbrestart

          ...................................................
          :                      SETUP                      :
          :.................................................:
          :  # basis functions                2150          :
          :  # atomic orbitals                2132          :
          :  # shells                         1166          :
          :  # electrons                      2388          :
          :  max. iterations                   250          :
          :  Hamiltonian                  GFN2-xTB          :
          :  restarted?                       true          :
          :  GBSA solvation                   true          :
          :  PC potential                    false          :
          :  electronic temp.          300.0000000     K    :
          :  accuracy                    1.0000000          :
          :  -> integral cutoff          0.2500000E+02      :
          :  -> integral neglect         0.1000000E-07      :
          :  -> SCF convergence          0.1000000E-05 Eh   :
          :  -> wf. convergence          0.1000000E-03 e    :
          :  Broyden damping             0.4000000          :
          ...................................................

 iter      E             dE          RMSdq      gap      omega  full diag
   1  -1410.6845453 -0.141068E+04  0.137E+00    0.00       0.0  T
   2  -1409.1604752  0.152407E+01  0.167E+00    0.00       1.0  T
   3  -1409.0100138  0.150461E+00  0.163E+00    0.01       1.0  T
   4  -1410.6328218 -0.162281E+01  0.140E+00    0.01       1.0  T
   5  -1410.0417319  0.591090E+00  0.132E+00    0.00       1.0  T
   6  -1411.4218180 -0.138009E+01  0.104E+00    0.01       1.0  T
   7  -1411.4912541 -0.694360E-01  0.940E-01    0.01       1.0  T
   8  -1410.8440857  0.647168E+00  0.111E+00    0.02       1.0  T
   9  -1411.8296042 -0.985519E+00  0.839E-01    0.00       1.0  T
  10  -1411.9814666 -0.151862E+00  0.711E-01    0.02       1.0  T
  11  -1412.2457558 -0.264289E+00  0.580E-01    0.01       1.0  T
  12  -1412.0504955  0.195260E+00  0.663E-01    0.01       1.0  T
  13  -1411.9859292  0.645663E-01  0.691E-01    0.00       1.0  T
  14  -1412.2797055 -0.293776E+00  0.515E-01    0.00       1.0  T
  15  -1412.1994229  0.802826E-01  0.532E-01    0.00       1.0  T
  16  -1412.3956601 -0.196237E+00  0.404E-01    0.00       1.0  T
  17  -1412.1139335  0.281727E+00  0.563E-01    0.00       1.0  T
  18  -1412.4322259 -0.318292E+00  0.357E-01    0.00       1.0  T
  19  -1412.4688162 -0.365904E-01  0.316E-01    0.00       1.0  T
  20  -1412.4477243  0.210919E-01  0.312E-01    0.00       1.0  T
  21  -1412.4342208  0.135035E-01  0.341E-01    0.01       1.0  T
  22  -1412.4905550 -0.563342E-01  0.266E-01    0.00       1.0  T
  23  -1412.4851445  0.541054E-02  0.277E-01    0.00       1.0  T
  24  -1412.5256605 -0.405160E-01  0.223E-01    0.00       1.0  T
  25  -1412.5438800 -0.182195E-01  0.180E-01    0.00       1.0  T
  26  -1412.5458546 -0.197453E-02  0.180E-01    0.00       1.0  T
  27  -1412.5491326 -0.327801E-02  0.177E-01    0.00       1.0  T
  28  -1412.5630725 -0.139399E-01  0.151E-01    0.00       1.0  T
  29  -1412.5648984 -0.182590E-02  0.141E-01    0.00       1.0  T
  30  -1412.5754978 -0.105994E-01  0.115E-01    0.00       1.0  T
  31  -1412.5802517 -0.475397E-02  0.884E-02    0.00       1.0  T
  32  -1412.5825865 -0.233472E-02  0.753E-02    0.00       1.0  T
  33  -1412.5791196  0.346682E-02  0.935E-02    0.00       1.0  T
  34  -1412.5856266 -0.650699E-02  0.611E-02    0.00       1.0  T
  35  -1412.5879319 -0.230525E-02  0.397E-02    0.00       1.0  T
  36  -1412.5875219  0.409949E-03  0.442E-02    0.00       1.0  T
  37  -1412.5874063  0.115640E-03  0.426E-02    0.00       1.0  T
  38  -1412.5880550 -0.648652E-03  0.372E-02    0.00       1.0  T
  39  -1412.5890716 -0.101667E-02  0.254E-02    0.00       1.0  T
  40  -1412.5892498 -0.178150E-03  0.221E-02    0.00       1.0  T
  41  -1412.5891720  0.777996E-04  0.241E-02    0.00       1.0  T
  42  -1412.5892651 -0.931611E-04  0.213E-02    0.00       1.0  T
  43  -1412.5894642 -0.199111E-03  0.165E-02    0.00       1.0  T
  44  -1412.5895354 -0.711286E-04  0.147E-02    0.00       1.0  T
  45  -1412.5896265 -0.911258E-04  0.124E-02    0.00       1.0  T
  46  -1412.5896773 -0.507638E-04  0.116E-02    0.00       1.0  T
  47  -1412.5897485 -0.712075E-04  0.841E-03    0.00       1.0  T
  48  -1412.5897852 -0.367681E-04  0.683E-03    0.00       1.0  T
  49  -1412.5897828  0.240504E-05  0.674E-03    0.00       1.0  T
  50  -1412.5897944 -0.116179E-04  0.594E-03    0.00       1.0  T
  51  -1412.5898068 -0.123499E-04  0.519E-03    0.00       1.0  T
  52  -1412.5898170 -0.102455E-04  0.434E-03    0.00       1.0  T
  53  -1412.5898236 -0.659245E-05  0.385E-03    0.00       1.0  T
  54  -1412.5898311 -0.741510E-05  0.290E-03    0.00       1.3  T
  55  -1412.5898316 -0.579638E-06  0.270E-03    0.00       1.4  T
  56  -1412.5898330 -0.134204E-05  0.270E-03    0.00       1.4  T
  57  -1412.5898359 -0.290161E-05  0.231E-03    0.00       1.6  T
  58  -1412.5898380 -0.212808E-05  0.162E-03    0.00       2.3  T
  59  -1412.5898393 -0.128216E-05  0.130E-03    0.00       2.9  T
  60  -1412.5898396 -0.283472E-06  0.122E-03    0.00       3.1  T
  61  -1412.5898401 -0.486567E-06  0.102E-03    0.00       3.7  T
  62  -1412.5898404 -0.302683E-06  0.891E-04    0.00       4.2  T
  63  -1412.5898407 -0.296094E-06  0.688E-04    0.00       5.5  T

   *** convergence criteria satisfied after 63 iterations ***

         #    Occupation            Energy/Eh            Energy/eV
      -------------------------------------------------------------
         1        2.0000           -0.7743096             -21.0700
       ...           ...                  ...                  ...
      1188        1.5289           -0.4340201             -11.8103
      1189        1.5048           -0.4339576             -11.8086
      1190        1.4795           -0.4338942             -11.8069
      1191        1.4286           -0.4337723             -11.8035
      1192        1.3938           -0.4336925             -11.8014
      1193        1.3864           -0.4336761             -11.8009
      1194        1.3527           -0.4336019             -11.7989 (HOMO)
      1195        1.3075           -0.4335055             -11.7963 (LUMO)
      1196        1.2703           -0.4334284             -11.7942
      1197        1.2289           -0.4333445             -11.7919
      1198        1.1542           -0.4331970             -11.7879
      1199        1.1007           -0.4330937             -11.7851
       ...           ...                  ...                  ...
      2132                          1.2920359              35.1581
      -------------------------------------------------------------
                  HL-Gap            0.0000965 Eh            0.0026 eV
             Fermi-level           -0.4329016 Eh          -11.7799 eV

 SCC (total)                   0 d,  0 h,  0 min, 39.082 sec
 SCC setup                      ...        0 min,  0.073 sec (  0.186%)
 Dispersion                     ...        0 min,  0.223 sec (  0.571%)
 classical contributions        ...        0 min,  0.004 sec (  0.009%)
 integral evaluation            ...        0 min,  0.535 sec (  1.370%)
 iterations                     ...        0 min, 36.222 sec ( 92.683%)
 molecular gradient             ...        0 min,  1.941 sec (  4.965%)
 printout                       ...        0 min,  0.084 sec (  0.216%)

         :::::::::::::::::::::::::::::::::::::::::::::::::::::
         ::                     SUMMARY                     ::
         :::::::::::::::::::::::::::::::::::::::::::::::::::::
         :: total energy           -1399.216543246387 Eh    ::
         :: total w/o Gsasa/hb     -1399.077586919136 Eh    ::
         :: gradient norm              0.527154835280 Eh/a0 ::
         :: HOMO-LUMO gap              0.002624819511 eV    ::
         ::.................................................::
         :: SCC energy             -1412.589840654026 Eh    ::
         :: -> isotropic ES            6.030889041095 Eh    ::
         :: -> anisotropic ES         -0.767675739614 Eh    ::
         :: -> anisotropic XC          0.257440543143 Eh    ::
         :: -> dispersion             -1.264093373286 Eh    ::
         :: -> Gsolv                  -1.938952101636 Eh    ::
         ::    -> Gelec               -1.799995774385 Eh    ::
         ::    -> Gsasa               -0.004590072923 Eh    ::
         ::    -> Ghb                 -0.136223697455 Eh    ::
         ::    -> Gshift               0.001857443127 Eh    ::
         :: repulsion energy          13.254524698225 Eh    ::
         :: add. restraining           0.000000000000 Eh    ::
         :: total charge               0.000000000001 e     ::
         :::::::::::::::::::::::::::::::::::::::::::::::::::::

           -------------------------------------------------
          |                Property Printout                |
           -------------------------------------------------

    * Orbital Energies and Occupations

         #    Occupation            Energy/Eh            Energy/eV
      -------------------------------------------------------------
         1        2.0000           -0.7743096             -21.0700
       ...           ...                  ...                  ...
      1182        1.6884           -0.4345069             -11.8235
      1183        1.6714           -0.4344470             -11.8219
      1184        1.6710           -0.4344457             -11.8219
      1185        1.6173           -0.4342710             -11.8171
      1186        1.5706           -0.4341337             -11.8134
      1187        1.5587           -0.4341004             -11.8125
      1188        1.5289           -0.4340201             -11.8103
      1189        1.5048           -0.4339576             -11.8086
      1190        1.4795           -0.4338942             -11.8069
      1191        1.4286           -0.4337723             -11.8035
      1192        1.3938           -0.4336925             -11.8014
      1193        1.3864           -0.4336761             -11.8009
      1194        1.3527           -0.4336019             -11.7989 (HOMO)
      1195        1.3075           -0.4335055             -11.7963 (LUMO)
      1196        1.2703           -0.4334284             -11.7942
      1197        1.2289           -0.4333445             -11.7919
      1198        1.1542           -0.4331970             -11.7879
      1199        1.1007           -0.4330937             -11.7851
      1200        1.0656           -0.4330264             -11.7832
      1201        1.0473           -0.4329916             -11.7823
      1202        0.8850           -0.4326822             -11.7739
      1203        0.7528           -0.4324220             -11.7668
      1204                         -0.3148857              -8.5685
      1205                         -0.3146367              -8.5617
       ...                                ...                  ...
      2132                          1.2920359              35.1581
      -------------------------------------------------------------
                  HL-Gap            0.0000965 Eh            0.0026 eV
             Fermi-level           -0.4329016 Eh          -11.7799 eV

 * generalized Born model for continuum solvation

     #   Z     Born rad/Å   SASA/Å²    H-bond
     1   8 O        2.302    11.689    -0.002
     2   6 C        3.412     0.357    -0.000
     3   6 C        3.473     0.152    -0.000
     4   8 O        2.894     8.636    -0.001
     5   6 C        3.500     0.618    -0.000
     6   7 N        3.593     0.209    -0.000
     7   6 C        3.340     3.678    -0.000
     8   6 C        3.641     1.186    -0.000
     9   6 C        2.694     2.700    -0.000
    10   6 C        3.687     0.125    -0.000
    11   7 N        2.730     0.287    -0.000
    12   7 N        3.170     2.769    -0.001
    13   6 C        3.419     0.032    -0.000
    14   8 O        2.521    11.298    -0.002
    15   6 C        4.172     0.002    -0.000
    16   6 C        3.409     0.165    -0.000
    17   6 C        3.399     0.016    -0.000
    18   6 C        3.263     1.765    -0.000
    19   6 C        2.802     5.566    -0.000
    20   8 O        2.722     3.255    -0.000
    21   1 H        1.944    21.580    -0.029
    22   1 H        2.197    15.590    -0.021
    23   1 H        2.285    11.779    -0.016
    24   1 H        2.389     2.641    -0.004
    25   1 H        2.110    14.766    -0.020
    26   1 H        2.113    17.541    -0.023
    27   1 H        2.141    13.268    -0.018
    28   1 H        2.710     1.724    -0.002
    29   1 H        2.302    10.267    -0.014
    30   1 H        2.619     0.066    -0.000
    31   1 H        2.291    10.401    -0.014
    32   1 H        2.682     0.000     0.000
    33   1 H        2.354     5.590    -0.007
    34   1 H        2.157    11.826    -0.016
    35   1 H        2.130    13.565    -0.018
    36   1 H        2.046    19.994    -0.027
    37   6 C        2.799     2.260    -0.000
    38   6 C        3.670     0.003    -0.000
    39   6 C        3.837     0.015    -0.000
    40   6 C        3.562     0.000    -0.000
    41   6 C        3.649     0.656    -0.000
    42  15 P        3.258     8.167    -0.001
    43   8 O        2.264    16.122    -0.002
    44   8 O        2.182    25.120    -0.003
    45   8 O        2.813     0.791    -0.000
    46   6 C        3.697     0.068    -0.000
    47   6 C        3.654     0.060    -0.000
    48   8 O        3.186     2.353    -0.000
    49   6 C        3.689     0.158    -0.000
    50   7 N        3.844     0.000     0.000
    51   8 O        2.592     7.479    -0.001
    52   7 N        3.372     0.062    -0.000
    53   8 O        2.607     8.700    -0.001
    54   6 C        4.263     0.002    -0.000
    55   6 C        3.478     0.201    -0.000
    56   6 C        3.388     0.144    -0.000
    57   6 C        3.347     1.829    -0.000
    58   6 C        2.841     4.928    -0.000
    59   8 O        2.720     4.194    -0.001
    60   1 H        2.232     4.756    -0.006
    61   1 H        2.249     6.830    -0.009
    62   1 H        2.155    14.239    -0.019
    63   1 H        2.685     0.000    -0.000
    64   1 H        2.248    12.387    -0.017
    65   1 H        2.351    11.156    -0.015
    66   1 H        3.215     0.012    -0.000
    67   1 H        2.628     0.043    -0.000
    68   1 H        2.305    10.955    -0.015
    69   1 H        2.591     0.027    -0.000
    70   1 H        2.315     8.224    -0.011
    71   1 H        2.194    12.142    -0.016
    72   1 H        2.133    14.288    -0.019
    73   1 H        2.072    17.237    -0.023
    74  15 P        3.282     7.371    -0.001
    75   8 O        2.244    18.645    -0.003
    76   8 O        2.202    22.729    -0.003
    77   8 O        2.870     0.102    -0.000
    78   6 C        3.752     0.066    -0.000
    79   6 C        3.670     0.066    -0.000
    80   8 O        3.154     3.342    -0.000
    81   6 C        3.723     0.149    -0.000
    82   7 N        3.939     0.000     0.000
    83   6 C        3.705     0.038    -0.000
    84   6 C        4.032     1.178    -0.000
    85   6 C        2.832     2.264    -0.000
    86   6 C        3.985     0.437    -0.000
    87   7 N        2.732     1.122    -0.000
    88   7 N        3.694     0.000    -0.000
    89   6 C        3.791     0.000    -0.000
    90   8 O        2.836     4.768    -0.001
    91   6 C        4.283     0.000    -0.000
    92   6 C        3.493     0.259    -0.000
    93   6 C        3.389     0.496    -0.000
    94   6 C        3.363     1.721    -0.000
    95   6 C        2.873     4.454    -0.000
    96   8 O        2.734     3.686    -0.001
    97   1 H        2.256    12.152    -0.016
    98   1 H        2.374    10.179    -0.014
    99   1 H        2.661     0.000    -0.000
   100   1 H        2.242     6.783    -0.009
   101   1 H        2.302     3.594    -0.005
   102   1 H        2.176    16.979    -0.023
   103   1 H        2.594     1.568    -0.002
   104   1 H        2.308    12.319    -0.016
   105   1 H        2.613     0.298    -0.000
   106   1 H        2.327    10.704    -0.014
   107   1 H        2.563     2.888    -0.004
   108   1 H        2.321     8.734    -0.012
   109   1 H        2.196    12.269    -0.016
   110   1 H        2.149    13.954    -0.019
   111   1 H        2.094    15.125    -0.020
   112   6 C        3.522     1.202    -0.000
   113   6 C        4.449     0.002    -0.000
   114   6 C        4.878     0.000     0.000
   115   6 C        4.383     1.266    -0.000
   116   6 C        3.701     0.682    -0.000
   117  15 P        3.289     7.741    -0.001
   118   8 O        2.288    15.161    -0.002
   119   8 O        2.192    24.729    -0.003
   120   8 O        2.824     0.507    -0.000
   121   6 C        3.714     0.028    -0.000
   122   6 C        3.683     0.059    -0.000
   123   8 O        3.183     2.902    -0.000
   124   6 C        3.768     0.217    -0.000
   125   7 N        4.282     0.000    -0.000
   126   7 N        3.012    10.952    -0.003
   127   8 O        2.619     9.946    -0.001
   128   7 N        3.842     0.000     0.000
   129   7 N        2.983     0.139    -0.000
   130   7 N        3.552     2.446    -0.001
   131   6 C        4.297     0.000     0.000
   132   6 C        3.518     0.434    -0.000
   133   6 C        3.381     0.509    -0.000
   134   6 C        3.322     1.841    -0.000
   135   6 C        2.859     4.480    -0.000
   136   8 O        2.727     4.234    -0.001
   137   1 H        2.575     0.569    -0.001
   138   1 H        2.265    12.038    -0.016
   139   1 H        2.432     8.413    -0.011
   140   1 H        3.580     0.000     0.000
   141   1 H        2.394    10.060    -0.013
   142   1 H        2.956     0.618    -0.001
   143   1 H        2.613     1.097    -0.001
   144   1 H        2.334    10.893    -0.015
   145   1 H        2.532     3.406    -0.005
   146   1 H        2.339     6.953    -0.009
   147   1 H        2.170    15.674    -0.021
   148   1 H        2.145    14.128    -0.019
   149   1 H        2.080    17.086    -0.023
   150   6 C        3.647     0.239    -0.000
   151   6 C        4.335     0.002    -0.000
   152   6 C        4.927     0.000     0.000
   153   6 C        4.630     0.008    -0.000
   154   6 C        3.828     0.038    -0.000
   155  15 P        3.294     7.559    -0.001
   156   8 O        2.258    17.937    -0.002
   157   8 O        2.207    22.737    -0.003
   158   8 O        2.902     0.005    -0.000
   159   6 C        3.761     0.033    -0.000
   160   6 C        3.657     0.085    -0.000
   161   8 O        3.101     5.222    -0.001
   162   6 C        3.732     0.317    -0.000
   163   7 N        4.373     0.001    -0.000
   164   7 N        3.118     7.050    -0.002
   165   8 O        2.667     8.385    -0.001
   166   7 N        3.869     0.000    -0.000
   167   7 N        2.955     0.127    -0.000
   168   7 N        3.448     3.696    -0.001
   169   6 C        4.322     0.001    -0.000
   170   6 C        3.503     0.439    -0.000
   171   6 C        3.460     0.023    -0.000
   172   6 C        3.408     1.587    -0.000
   173   6 C        2.881     4.155    -0.000
   174   8 O        2.739     4.049    -0.001
   175   1 H        2.631     0.175    -0.000
   176   1 H        2.244    13.442    -0.018
   177   1 H        2.380    10.854    -0.015
   178   1 H        3.614     0.000    -0.000
   179   1 H        2.386    10.986    -0.015
   180   1 H        2.931     0.573    -0.001
   181   1 H        2.612     0.484    -0.001
   182   1 H        2.308    11.652    -0.016
   183   1 H        2.678     0.000     0.000
   184   1 H        2.350     6.733    -0.009
   185   1 H        2.222    10.652    -0.014
   186   1 H        2.149    13.953    -0.019
   187   1 H        2.097    15.679    -0.021
   188  15 P        3.287     7.038    -0.001
   189   8 O        2.242    19.387    -0.003
   190   8 O        2.209    22.270    -0.003
   191   8 O        2.858     0.101    -0.000
   192   6 C        3.747     0.035    -0.000
   193   6 C        3.689     0.080    -0.000
   194   8 O        3.204     3.455    -0.000
   195   6 C        3.885     0.160    -0.000
   196   7 N        4.128     0.000     0.000
   197   6 C        3.769     0.094    -0.000
   198   6 C        4.123     0.045    -0.000
   199   6 C        2.857     1.910    -0.000
   200   6 C        4.051     0.000    -0.000
   201   7 N        2.731     1.411    -0.000
   202   7 N        3.746     0.001    -0.000
   203   6 C        3.935     0.000     0.000
   204   8 O        2.919     3.936    -0.001
   205   6 C        4.358     0.000     0.000
   206   6 C        3.538     0.187    -0.000
   207   6 C        3.433     0.057    -0.000
   208   6 C        3.359     1.791    -0.000
   209   6 C        2.886     4.365    -0.000
   210   8 O        2.756     3.679    -0.001
   211   1 H        2.260    12.891    -0.017
   212   1 H        2.538     5.580    -0.007
   213   1 H        2.634     0.002    -0.000
   214   1 H        2.264     7.248    -0.010
   215   1 H        2.301     6.378    -0.009
   216   1 H        2.206    13.527    -0.018
   217   1 H        2.604     2.042    -0.003
   218   1 H        2.303    13.566    -0.018
   219   1 H        2.625     0.160    -0.000
   220   1 H        2.334    11.046    -0.015
   221   1 H        2.655     0.028    -0.000
   222   1 H        2.343     7.087    -0.009
   223   1 H        2.187    13.621    -0.018
   224   1 H        2.159    13.292    -0.018
   225   1 H        2.104    14.146    -0.019
   226   6 C        2.830     2.351    -0.000
   227   6 C        3.716     0.000    -0.000
   228   6 C        3.889     0.013    -0.000
   229   6 C        3.540     0.004    -0.000
   230   6 C        3.886     0.000    -0.000
   231  15 P        3.295     7.472    -0.001
   232   8 O        2.257    17.932    -0.002
   233   8 O        2.204    22.967    -0.003
   234   8 O        2.867     0.113    -0.000
   235   6 C        3.751     0.035    -0.000
   236   6 C        3.703     0.057    -0.000
   237   8 O        3.212     3.154    -0.000
   238   6 C        3.847     0.132    -0.000
   239   7 N        4.019     0.000    -0.000
   240   8 O        2.575     9.425    -0.001
   241   7 N        3.413     0.000    -0.000
   242   8 O        2.733     5.169    -0.001
   243   6 C        4.342     0.001    -0.000
   244   6 C        3.494     0.326    -0.000
   245   6 C        3.457     0.029    -0.000
   246   6 C        3.393     1.550    -0.000
   247   6 C        2.883     4.319    -0.000
   248   8 O        2.757     3.688    -0.001
   249   1 H        2.308     4.197    -0.006
   250   1 H        2.157    16.009    -0.021
   251   1 H        2.285     5.422    -0.007
   252   1 H        2.645     0.000    -0.000
   253   1 H        2.268    12.035    -0.016
   254   1 H        2.517     6.142    -0.008
   255   1 H        3.209     0.000    -0.000
   256   1 H        2.569     0.382    -0.001
   257   1 H        2.312    11.849    -0.016
   258   1 H        2.673     0.000    -0.000
   259   1 H        2.353     6.334    -0.008
   260   1 H        2.205    11.560    -0.015
   261   1 H        2.157    13.092    -0.017
   262   1 H        2.097    15.444    -0.021
   263   6 C        2.819     2.661    -0.000
   264   6 C        3.610     0.311    -0.000
   265   6 C        3.813     1.717    -0.000
   266   6 C        3.534     0.087    -0.000
   267   6 C        3.755     0.000    -0.000
   268  15 P        3.284     7.051    -0.001
   269   8 O        2.245    19.025    -0.003
   270   8 O        2.208    21.975    -0.003
   271   8 O        2.849     0.163    -0.000
   272   6 C        3.721     0.032    -0.000
   273   6 C        3.671     0.052    -0.000
   274   8 O        3.160     3.137    -0.000
   275   6 C        3.716     0.130    -0.000
   276   7 N        3.835     0.000    -0.000
   277   8 O        2.606     7.637    -0.001
   278   7 N        3.405     0.000    -0.000
   279   8 O        2.663     7.106    -0.001
   280   6 C        4.295     0.000    -0.000
   281   6 C        3.475     0.265    -0.000
   282   6 C        3.368     0.529    -0.000
   283   6 C        3.317     1.941    -0.000
   284   6 C        2.870     4.668    -0.000
   285   8 O        2.752     3.360    -0.000
   286   1 H        2.148    17.879    -0.024
   287   1 H        2.269     6.591    -0.009
   288   1 H        2.320     2.986    -0.004
   289   1 H        2.586     0.005    -0.000
   290   1 H        2.260    12.660    -0.017
   291   1 H        2.383    10.862    -0.015
   292   1 H        3.241     0.000    -0.000
   293   1 H        2.602     0.486    -0.001
   294   1 H        2.320    10.865    -0.015
   295   1 H        2.532     3.448    -0.005
   296   1 H        2.325     7.796    -0.010
   297   1 H        2.169    14.567    -0.019
   298   1 H        2.152    13.329    -0.018
   299   1 H        2.095    14.687    -0.020
   300   8 O        2.255    17.617    -0.002
   301  15 P        3.284     7.434    -0.001
   302   8 O        2.201    23.092    -0.003
   303   6 C        2.855     4.534    -0.000
   304   8 O        2.866     0.057    -0.000
   305   6 C        3.713     0.035    -0.000
   306   6 C        3.342     1.728    -0.000
   307   6 C        3.612     0.064    -0.000
   308   6 C        4.199     0.000    -0.000
   309   6 C        3.352     0.227    -0.000
   310   8 O        2.699     4.312    -0.001
   311   6 C        3.440     0.414    -0.000
   312   6 C        3.634     0.399    -0.000
   313   8 O        3.070     4.625    -0.001
   314   7 N        4.131     0.021    -0.000
   315   6 C        4.640     0.001    -0.000
   316   7 N        3.164     5.126    -0.002
   317   6 C        3.556     0.111    -0.000
   318   7 N        3.832     0.000     0.000
   319   6 C        4.296     0.000     0.000
   320   7 N        2.789     0.292    -0.000
   321   6 C        4.709     0.000     0.000
   322   7 N        3.096     5.039    -0.002
   323   6 C        3.545     0.440    -0.000
   324   1 H        2.136    14.388    -0.019
   325   1 H        2.084    16.174    -0.022
   326   1 H        2.193    12.319    -0.016
   327   1 H        2.231    13.609    -0.018
   328   1 H        2.530     0.045    -0.000
   329   1 H        2.311     9.071    -0.012
   330   1 H        2.539     0.890    -0.001
   331   1 H        2.302    11.125    -0.015
   332   1 H        2.333    13.909    -0.019
   333   1 H        2.506     4.149    -0.006
   334   1 H        2.525     3.138    -0.004
   335   1 H        2.328    10.029    -0.013
   336   1 H        2.629     0.231    -0.000
   337  15 P        3.263     7.913    -0.001
   338   8 O        2.257    16.875    -0.002
   339   8 O        2.191    23.284    -0.003
   340   8 O        2.766     0.551    -0.000
   341   6 C        3.596     0.035    -0.000
   342   6 C        3.561     0.026    -0.000
   343   8 O        3.157     1.226    -0.000
   344   6 C        3.672     0.059    -0.000
   345   7 N        3.810     0.005    -0.000
   346   6 C        3.565     0.837    -0.000
   347   6 C        4.018     0.314    -0.000
   348   6 C        2.823     2.421    -0.000
   349   6 C        3.950     0.000    -0.000
   350   7 N        2.700     0.659    -0.000
   351   7 N        3.352     0.034    -0.000
   352   6 C        3.589     0.005    -0.000
   353   8 O        2.606     5.937    -0.001
   354   6 C        3.956     0.001    -0.000
   355   6 C        3.314     0.323    -0.000
   356   6 C        3.262     0.123    -0.000
   357   6 C        3.234     1.866    -0.000
   358   6 C        2.833     4.448    -0.000
   359   8 O        2.386    10.862    -0.001
   360   1 H        2.244    12.076    -0.016
   361   1 H        2.403     9.279    -0.012
   362   1 H        2.463     1.392    -0.002
   363   1 H        2.172    11.667    -0.016
   364   1 H        2.229     7.985    -0.011
   365   1 H        2.283     7.237    -0.010
   366   1 H        2.371     6.515    -0.009
   367   1 H        2.290    12.087    -0.016
   368   1 H        2.442     3.495    -0.005
   369   1 H        2.233    14.873    -0.020
   370   1 H        2.503     0.656    -0.001
   371   1 H        2.273     7.355    -0.010
   372   1 H        2.139    17.276    -0.023
   373   1 H        2.123    14.528    -0.019
   374   1 H        2.081    15.039    -0.020
   375   1 H        2.005    16.731    -0.022
   376   8 O        2.321    13.746    -0.002
   377   6 C        2.766     1.818    -0.000
   378   6 C        3.275     0.221    -0.000
   379   8 O        2.822     9.768    -0.001
   380   6 C        3.516     0.000     0.000
   381   8 O        2.917     0.194    -0.000
   382   6 C        3.557     0.080    -0.000
   383   8 O        2.459    13.288    -0.002
   384   6 C        3.452     0.696    -0.000
   385   7 N        3.683     0.882    -0.000
   386   6 C        3.181     4.113    -0.000
   387   7 N        2.823    11.132    -0.003
   388   6 C        3.785     3.373    -0.000
   389   6 C        3.152     4.509    -0.000
   390   8 O        2.324    19.452    -0.003
   391   7 N        2.951     2.078    -0.001
   392   6 C        3.385     4.133    -0.000
   393   7 N        2.548     3.685    -0.001
   394   7 N        2.949     8.031    -0.002
   395   6 C        3.928     3.561    -0.000
   396   1 H        2.068    18.912    -0.025
   397   1 H        2.123    10.057    -0.013
   398   1 H        2.208    13.097    -0.017
   399   1 H        2.441     1.303    -0.002
   400   1 H        2.531     0.116    -0.000
   401   1 H        2.261     3.140    -0.004
   402   1 H        2.329    12.377    -0.017
   403   1 H        2.318     7.357    -0.010
   404   1 H        2.301    13.387    -0.018
   405   1 H        2.245    11.278    -0.015
   406   1 H        2.149    18.866    -0.025
   407   1 H        2.051    11.189    -0.015
   408  15 P        3.251     6.278    -0.001
   409   8 O        2.209    20.266    -0.003
   410   8 O        2.230    18.278    -0.003
   411   8 O        2.601     5.690    -0.001
   412   6 C        2.824     1.124    -0.000
   413   6 C        3.335     0.168    -0.000
   414   8 O        3.233     0.842    -0.000
   415   6 C        3.441     0.016    -0.000
   416   8 O        2.629     5.346    -0.001
   417   6 C        3.670     0.000    -0.000
   418   8 O        2.505     6.482    -0.001
   419   6 C        3.754     0.073    -0.000
   420   7 N        3.725     0.054    -0.000
   421   6 C        3.643     0.009    -0.000
   422   8 O        2.686     3.622    -0.000
   423   7 N        3.268     0.005    -0.000
   424   6 C        3.223     2.560    -0.000
   425   8 O        2.425    14.014    -0.002
   426   6 C        3.076     5.177    -0.000
   427   6 C        3.327     2.931    -0.000
   428   1 H        2.147    12.767    -0.017
   429   1 H        2.095    17.614    -0.024
   430   1 H        2.224    14.326    -0.019
   431   1 H        2.400     4.931    -0.007
   432   1 H        2.657     0.367    -0.000
   433   1 H        2.112    10.157    -0.014
   434   1 H        2.435     7.950    -0.011
   435   1 H        3.236     0.000    -0.000
   436   1 H        2.108    15.442    -0.021
   437   1 H        2.504     1.326    -0.002
   438  15 P        3.196    10.066    -0.001
   439   8 O        2.181    24.189    -0.003
   440   8 O        2.201    24.092    -0.003
   441   8 O        2.709     1.446    -0.000
   442   6 C        2.875     0.507    -0.000
   443   6 C        3.369     0.138    -0.000
   444   8 O        3.112     1.374    -0.000
   445   6 C        3.542     0.045    -0.000
   446   8 O        2.671     5.243    -0.001
   447   6 C        3.706     0.167    -0.000
   448   8 O        2.460    11.906    -0.002
   449   6 C        3.665     0.199    -0.000
   450   7 N        4.086     0.000    -0.000
   451   6 C        3.406     2.747    -0.000
   452   7 N        2.972    11.389    -0.003
   453   6 C        4.590     0.177    -0.000
   454   6 C        4.250     0.026    -0.000
   455   7 N        2.783     0.415    -0.000
   456   7 N        3.777     0.000     0.000
   457   6 C        3.553     0.139    -0.000
   458   7 N        3.167     5.105    -0.002
   459   6 C        4.616     0.000    -0.000
   460   1 H        2.179    10.956    -0.015
   461   1 H        2.138    13.825    -0.018
   462   1 H        2.248    13.461    -0.018
   463   1 H        2.487     3.369    -0.005
   464   1 H        2.725     0.022    -0.000
   465   1 H        2.188     6.792    -0.009
   466   1 H        2.345    13.317    -0.018
   467   1 H        2.468     4.104    -0.005
   468   1 H        2.711     1.163    -0.002
   469   1 H        2.288    14.544    -0.019
   470   1 H        2.456     5.125    -0.007
   471  15 P        3.232    10.229    -0.001
   472   8 O        2.182    25.232    -0.003
   473   8 O        2.229    22.667    -0.003
   474   8 O        2.778     1.240    -0.000
   475   6 C        2.939     0.523    -0.000
   476   6 C        3.408     0.118    -0.000
   477   8 O        3.136     3.744    -0.001
   478   6 C        3.566     0.001    -0.000
   479   8 O        2.695     4.718    -0.001
   480   6 C        3.697     0.198    -0.000
   481   8 O        2.457    12.773    -0.002
   482   6 C        3.740     0.132    -0.000
   483   7 N        4.231     0.000    -0.000
   484   6 C        3.501     3.117    -0.000
   485   7 N        3.040    10.901    -0.003
   486   6 C        4.729     0.368    -0.000
   487   6 C        4.185     0.159    -0.000
   488   7 N        2.733     1.091    -0.000
   489   7 N        3.742     0.000     0.000
   490   6 C        3.599     0.073    -0.000
   491   7 N        3.235     4.127    -0.001
   492   6 C        4.828     0.001    -0.000
   493   1 H        2.318     6.690    -0.009
   494   1 H        2.158    12.953    -0.017
   495   1 H        2.240    14.179    -0.019
   496   1 H        2.480     3.722    -0.005
   497   1 H        2.711     0.113    -0.000
   498   1 H        2.177     7.097    -0.009
   499   1 H        2.397    10.234    -0.014
   500   1 H        2.555     1.002    -0.001
   501   1 H        2.592     2.288    -0.003
   502   1 H        2.275    16.523    -0.022
   503   1 H        2.517     2.192    -0.003
   504  15 P        3.235     9.925    -0.001
   505   8 O        2.186    25.004    -0.003
   506   8 O        2.229    23.054    -0.003
   507   8 O        2.796     0.653    -0.000
   508   6 C        2.950     0.552    -0.000
   509   6 C        3.417     0.206    -0.000
   510   8 O        3.125     4.470    -0.001
   511   6 C        3.587     0.000    -0.000
   512   8 O        2.689     4.934    -0.001
   513   6 C        3.744     0.028    -0.000
   514   8 O        2.481     7.754    -0.001
   515   6 C        3.837     0.082    -0.000
   516   7 N        4.305     0.009    -0.000
   517   6 C        3.536     2.565    -0.000
   518   7 N        3.034    11.648    -0.004
   519   6 C        4.467     0.169    -0.000
   520   6 C        3.733     0.070    -0.000
   521   8 O        2.598    10.932    -0.001
   522   7 N        3.829     0.000    -0.000
   523   6 C        4.430     0.000    -0.000
   524   7 N        3.047     0.075    -0.000
   525   7 N        3.528     2.032    -0.001
   526   6 C        4.884     0.001    -0.000
   527   1 H        2.308     6.892    -0.009
   528   1 H        2.165    12.457    -0.017
   529   1 H        2.245    12.864    -0.017
   530   1 H        2.511     3.083    -0.004
   531   1 H        2.713     0.007    -0.000
   532   1 H        2.093    13.746    -0.018
   533   1 H        2.453     9.178    -0.012
   534   1 H        2.576     0.836    -0.001
   535   1 H        3.531     0.001    -0.000
   536   1 H        3.033     0.131    -0.000
   537   1 H        2.476     6.920    -0.009
   538  15 P        3.235     9.930    -0.001
   539   8 O        2.188    25.018    -0.003
   540   8 O        2.232    22.669    -0.003
   541   8 O        2.804     0.603    -0.000
   542   6 C        2.957     0.559    -0.000
   543   6 C        3.424     0.187    -0.000
   544   8 O        3.203     2.515    -0.000
   545   6 C        3.565     0.000     0.000
   546   8 O        2.681     5.044    -0.001
   547   6 C        3.736     0.000     0.000
   548   8 O        2.486     7.799    -0.001
   549   6 C        3.934     0.044    -0.000
   550   7 N        4.089     0.000     0.000
   551   6 C        3.992     0.000     0.000
   552   8 O        2.938     2.619    -0.000
   553   7 N        3.854     0.001    -0.000
   554   6 C        4.061     0.000    -0.000
   555   7 N        2.769     0.375    -0.000
   556   6 C        3.464     0.713    -0.000
   557   6 C        3.562     0.830    -0.000
   558   1 H        2.236     8.568    -0.011
   559   1 H        2.184    10.831    -0.014
   560   1 H        2.238    15.113    -0.020
   561   1 H        2.500     3.105    -0.004
   562   1 H        2.745     0.001    -0.000
   563   1 H        2.087    13.000    -0.017
   564   1 H        2.572     4.697    -0.006
   565   1 H        2.677     1.834    -0.002
   566   1 H        2.272    15.399    -0.021
   567   1 H        2.210    14.395    -0.019
   568   1 H        2.491     1.265    -0.002
   569  15 P        3.209    10.092    -0.001
   570   8 O        2.180    25.128    -0.003
   571   8 O        2.213    23.611    -0.003
   572   8 O        2.708     2.021    -0.000
   573   6 C        2.925     0.465    -0.000
   574   6 C        3.429     0.116    -0.000
   575   8 O        3.220     1.145    -0.000
   576   6 C        3.555     0.000    -0.000
   577   8 O        2.680     4.567    -0.001
   578   6 C        3.750     0.000     0.000
   579   8 O        2.488     7.170    -0.001
   580   6 C        3.917     0.052    -0.000
   581   7 N        3.990     0.002    -0.000
   582   6 C        3.931     0.000    -0.000
   583   8 O        2.965     2.567    -0.000
   584   7 N        3.742     0.000     0.000
   585   6 C        3.897     0.685    -0.000
   586   7 N        2.725     1.337    -0.000
   587   6 C        3.412     3.815    -0.000
   588   6 C        3.503     1.941    -0.000
   589   1 H        2.240     8.309    -0.011
   590   1 H        2.158    13.148    -0.018
   591   1 H        2.270    13.810    -0.018
   592   1 H        2.494     2.981    -0.004
   593   1 H        2.728     0.005    -0.000
   594   1 H        2.082    13.136    -0.018
   595   1 H        2.561     3.786    -0.005
   596   1 H        2.634     1.522    -0.002
   597   1 H        2.264    15.399    -0.021
   598   1 H        2.212    13.077    -0.017
   599   1 H        2.459     2.731    -0.004
   600  15 P        3.221    10.013    -0.001
   601   8 O        2.179    25.495    -0.003
   602   8 O        2.230    22.400    -0.003
   603   8 O        2.727     1.511    -0.000
   604   6 C        2.904     0.558    -0.000
   605   6 C        3.383     0.174    -0.000
   606   8 O        3.122     2.031    -0.000
   607   6 C        3.536     0.012    -0.000
   608   8 O        2.680     4.930    -0.001
   609   6 C        3.744     0.038    -0.000
   610   8 O        2.485    12.014    -0.002
   611   6 C        3.788     0.137    -0.000
   612   7 N        4.232     0.003    -0.000
   613   6 C        3.450     3.221    -0.000
   614   7 N        2.986    11.786    -0.004
   615   6 C        4.435     0.213    -0.000
   616   6 C        3.764     0.044    -0.000
   617   8 O        2.632     8.365    -0.001
   618   7 N        3.867     0.000     0.000
   619   6 C        4.478     0.002    -0.000
   620   7 N        2.975     0.223    -0.000
   621   7 N        3.588     2.180    -0.001
   622   6 C        4.919     0.000    -0.000
   623   1 H        2.213     9.217    -0.012
   624   1 H        2.143    13.831    -0.018
   625   1 H        2.235    14.506    -0.019
   626   1 H        2.451     4.098    -0.005
   627   1 H        2.778     0.005    -0.000
   628   1 H        2.234     5.678    -0.008
   629   1 H        2.456     7.649    -0.010
   630   1 H        2.502     2.331    -0.003
   631   1 H        3.538     0.001    -0.000
   632   1 H        2.853     0.698    -0.001
   633   1 H        2.406     9.485    -0.013
   634  15 P        3.225     9.958    -0.001
   635   8 O        2.188    24.602    -0.003
   636   8 O        2.211    24.237    -0.003
   637   8 O        2.774     0.990    -0.000
   638   6 C        2.980     0.431    -0.000
   639   6 C        3.443     0.111    -0.000
   640   8 O        3.189     3.439    -0.000
   641   6 C        3.587     0.000     0.000
   642   8 O        2.709     4.224    -0.001
   643   6 C        3.572     0.289    -0.000
   644   8 O        2.414    13.172    -0.002
   645   6 C        3.783     0.092    -0.000
   646   7 N        4.212     0.000    -0.000
   647   6 C        3.521     2.836    -0.000
   648   7 N        3.064     9.679    -0.003
   649   6 C        4.633     0.325    -0.000
   650   6 C        4.076     0.547    -0.000
   651   7 N        2.814     0.516    -0.000
   652   7 N        3.510     2.519    -0.001
   653   6 C        3.320     3.413    -0.000
   654   7 N        3.075     5.861    -0.002
   655   6 C        4.639     0.005    -0.000
   656   1 H        2.347     6.833    -0.009
   657   1 H        2.190     9.710    -0.013
   658   1 H        2.259    13.975    -0.019
   659   1 H        2.513     2.168    -0.003
   660   1 H        2.474     1.335    -0.002
   661   1 H        2.067    11.727    -0.016
   662   1 H        2.482     6.370    -0.009
   663   1 H        2.558     2.153    -0.003
   664   1 H        2.809     0.818    -0.001
   665   1 H        2.318    13.892    -0.019
   666   1 H        2.373     8.242    -0.011
   667  15 P        3.202     9.624    -0.001
   668   8 O        2.178    24.969    -0.003
   669   8 O        2.215    21.850    -0.003
   670   8 O        2.709     0.550    -0.000
   671   6 C        2.901     0.598    -0.000
   672   6 C        3.276     0.248    -0.000
   673   8 O        2.952     4.204    -0.001
   674   6 C        3.219     0.425    -0.000
   675   8 O        2.306    15.761    -0.002
   676   6 C        3.292     0.119    -0.000
   677   8 O        2.352    12.873    -0.002
   678   6 C        3.446     0.475    -0.000
   679   7 N        3.639     0.677    -0.000
   680   6 C        3.176     4.439    -0.000
   681   7 N        2.770    14.703    -0.004
   682   6 C        3.656     3.983    -0.000
   683   6 C        3.098     4.491    -0.000
   684   8 O        2.287    26.764    -0.004
   685   7 N        2.950     2.071    -0.001
   686   6 C        3.386     4.402    -0.000
   687   7 N        2.537     3.684    -0.001
   688   7 N        2.950     7.957    -0.002
   689   6 C        3.885     4.431    -0.000
   690   1 H        2.275     5.099    -0.007
   691   1 H        2.151    12.443    -0.017
   692   1 H        2.212    13.747    -0.018
   693   1 H        2.259    11.011    -0.015
   694   1 H        2.021    13.332    -0.018
   695   1 H        2.268    12.179    -0.016
   696   1 H        1.990    16.985    -0.023
   697   1 H        2.304    14.602    -0.020
   698   1 H        2.342     2.620    -0.004
   699   1 H        2.303    12.797    -0.017
   700   1 H        2.206    13.856    -0.019
   701   1 H        2.149    19.036    -0.025

 total SASA / Å² :     3933.342

     #   Z          covCN         q      C6AA      α(0)
     1   8 O        1.655    -0.399    20.839     6.162
     2   6 C        3.794     0.151    18.162     6.069
     3   6 C        3.793     0.083    19.203     6.240
     4   8 O        1.696    -0.290    18.816     5.856
     5   6 C        3.701     0.152    18.282     6.114
     6   7 N        2.733    -0.059    22.383     7.027
     7   6 C        2.847     0.034    27.228     8.552
     8   6 C        2.947     0.002    27.987     8.677
     9   6 C        3.755    -0.159    23.643     6.933
    10   6 C        2.841     0.165    24.439     8.102
    11   7 N        2.648    -0.197    25.284     7.468
    12   7 N        1.843    -0.282    28.155     7.864
    13   6 C        2.715     0.321    21.545     7.598
    14   8 O        0.859    -0.440    22.494     6.359
    15   6 C        3.934     0.146    18.179     6.059
    16   6 C        3.822    -0.090    22.198     6.705
    17   6 C        3.821    -0.105    22.487     6.748
    18   6 C        3.868    -0.039    21.218     6.550
    19   6 C        3.806    -0.085    22.110     6.694
    20   8 O        1.657    -0.330    19.532     5.966
    21   1 H        0.804     0.375     0.533     1.147
    22   1 H        0.925     0.077     2.008     2.216
    23   1 H        0.925     0.123     1.587     1.970
    24   1 H        0.926     0.154     1.368     1.829
    25   1 H        0.925     0.113     1.672     2.022
    26   1 H        0.926     0.126     1.568     1.958
    27   1 H        0.926     0.137     1.482     1.904
    28   1 H        0.860     0.225     0.987     1.557
    29   1 H        0.860     0.268     0.816     1.415
    30   1 H        0.925     0.096     1.825     2.112
    31   1 H        0.925     0.095     1.832     2.117
    32   1 H        0.926     0.094     1.841     2.122
    33   1 H        0.926     0.101     1.777     2.085
    34   1 H        0.926     0.127     1.559     1.953
    35   1 H        0.926     0.081     1.973     2.196
    36   1 H        0.926     0.107     1.721     2.051
    37   6 C        3.754    -0.153    23.515     6.915
    38   6 C        2.839     0.018    27.607     8.611
    39   6 C        2.946    -0.023    28.568     8.766
    40   6 C        2.757     0.261    22.602     7.785
    41   6 C        2.696     0.315    21.643     7.614
    42  15 P        3.572     0.619   135.556    20.915
    43   8 O        0.808    -0.552    24.995     6.702
    44   8 O        0.808    -0.541    24.748     6.669
    45   8 O        1.657    -0.275    18.582     5.819
    46   6 C        3.997     0.160    17.958     6.020
    47   6 C        3.797     0.098    18.973     6.202
    48   8 O        1.697    -0.298    18.961     5.879
    49   6 C        3.705     0.156    18.218     6.102
    50   7 N        2.732    -0.055    22.302     7.014
    51   8 O        0.858    -0.375    21.190     6.172
    52   7 N        2.692    -0.173    24.753     7.389
    53   8 O        0.858    -0.429    22.265     6.326
    54   6 C        3.963     0.147    18.152     6.054
    55   6 C        3.826    -0.093    22.246     6.711
    56   6 C        3.821    -0.107    22.523     6.754
    57   6 C        3.869    -0.035    21.153     6.540
    58   6 C        3.805    -0.086    22.129     6.697
    59   8 O        1.657    -0.342    19.756     6.000
    60   1 H        0.924     0.128     1.552     1.948
    61   1 H        0.925     0.097     1.809     2.103
    62   1 H        0.924     0.148     1.406     1.855
    63   1 H        0.926     0.129     1.544     1.943
    64   1 H        0.925     0.073     2.049     2.238
    65   1 H        0.925     0.127     1.560     1.953
    66   1 H        0.860     0.251     0.879     1.469
    67   1 H        0.925     0.106     1.733     2.059
    68   1 H        0.924     0.094     1.845     2.124
    69   1 H        0.926     0.107     1.726     2.055
    70   1 H        0.926     0.117     1.637     2.001
    71   1 H        0.925     0.136     1.492     1.910
    72   1 H        0.925     0.086     1.919     2.166
    73   1 H        0.926     0.102     1.764     2.077
    74  15 P        3.627     0.624   135.388    20.902
    75   8 O        0.808    -0.551    24.962     6.697
    76   8 O        0.808    -0.540    24.722     6.665
    77   8 O        1.657    -0.276    18.594     5.821
    78   6 C        4.024     0.160    17.963     6.021
    79   6 C        3.795     0.096    19.000     6.207
    80   8 O        1.696    -0.300    18.991     5.884
    81   6 C        3.702     0.155    18.236     6.106
    82   7 N        2.733    -0.059    22.389     7.028
    83   6 C        2.846     0.030    27.327     8.567
    84   6 C        2.946    -0.006    28.175     8.706
    85   6 C        3.755    -0.167    23.794     6.955
    86   6 C        2.840     0.165    24.436     8.101
    87   7 N        2.648    -0.164    24.549     7.359
    88   7 N        1.843    -0.323    29.221     8.011
    89   6 C        2.715     0.319    21.585     7.605
    90   8 O        0.859    -0.465    23.017     6.432
    91   6 C        3.944     0.145    18.195     6.061
    92   6 C        3.825    -0.093    22.248     6.712
    93   6 C        3.820    -0.109    22.569     6.761
    94   6 C        3.869    -0.033    21.120     6.535
    95   6 C        3.806    -0.086    22.135     6.698
    96   8 O        1.657    -0.337    19.668     5.987
    97   1 H        0.925     0.079     1.991     2.207
    98   1 H        0.925     0.129     1.540     1.941
    99   1 H        0.926     0.122     1.598     1.977
   100   1 H        0.926     0.104     1.745     2.066
   101   1 H        0.926     0.132     1.520     1.928
   102   1 H        0.925     0.166     1.289     1.775
   103   1 H        0.860     0.263     0.836     1.432
   104   1 H        0.860     0.286     0.755     1.361
   105   1 H        0.925     0.106     1.728     2.056
   106   1 H        0.925     0.102     1.765     2.078
   107   1 H        0.926     0.111     1.687     2.031
   108   1 H        0.926     0.124     1.578     1.964
   109   1 H        0.925     0.140     1.459     1.889
   110   1 H        0.925     0.088     1.894     2.152
   111   1 H        0.926     0.105     1.741     2.064
   112   6 C        3.169     0.099    25.458     8.243
   113   6 C        2.820     0.206    23.635     7.966
   114   6 C        3.100     0.108    25.492     8.274
   115   6 C        3.208     0.019    26.968     8.456
   116   6 C        2.760     0.272    22.403     7.751
   117  15 P        3.616     0.627   135.296    20.894
   118   8 O        0.808    -0.539    24.683     6.660
   119   8 O        0.808    -0.530    24.478     6.632
   120   8 O        1.658    -0.263    18.368     5.786
   121   6 C        4.032     0.164    17.896     6.009
   122   6 C        3.796     0.095    19.016     6.209
   123   8 O        1.697    -0.293    18.881     5.867
   124   6 C        3.705     0.145    18.371     6.127
   125   7 N        2.821    -0.040    22.016     6.969
   126   7 N        1.876    -0.164    25.346     7.463
   127   8 O        0.858    -0.343    20.584     6.083
   128   7 N        2.704    -0.181    24.928     7.415
   129   7 N        2.649    -0.217    25.735     7.534
   130   7 N        1.834    -0.250    27.357     7.751
   131   6 C        3.959     0.142    18.226     6.066
   132   6 C        3.826    -0.103    22.446     6.741
   133   6 C        3.819    -0.111    22.600     6.766
   134   6 C        3.868    -0.029    21.042     6.523
   135   6 C        3.806    -0.088    22.183     6.705
   136   8 O        1.656    -0.340    19.718     5.994
   137   1 H        0.926     0.112     1.682     2.028
   138   1 H        0.925     0.086     1.918     2.166
   139   1 H        0.925     0.123     1.589     1.971
   140   1 H        0.860     0.246     0.898     1.484
   141   1 H        0.860     0.267     0.821     1.419
   142   1 H        0.860     0.263     0.834     1.431
   143   1 H        0.925     0.117     1.639     2.002
   144   1 H        0.925     0.107     1.726     2.054
   145   1 H        0.926     0.117     1.642     2.004
   146   1 H        0.926     0.132     1.518     1.927
   147   1 H        0.926     0.149     1.400     1.850
   148   1 H        0.925     0.098     1.802     2.099
   149   1 H        0.926     0.111     1.686     2.030
   150   6 C        3.160     0.094    25.604     8.272
   151   6 C        2.819     0.212    23.512     7.945
   152   6 C        3.095     0.106    25.545     8.284
   153   6 C        3.200     0.001    27.452     8.538
   154   6 C        2.760     0.264    22.551     7.777
   155  15 P        3.614     0.630   135.180    20.886
   156   8 O        0.808    -0.531    24.512     6.637
   157   8 O        0.808    -0.530    24.487     6.633
   158   8 O        1.658    -0.263    18.372     5.786
   159   6 C        4.014     0.159    17.968     6.022
   160   6 C        3.793     0.094    19.036     6.213
   161   8 O        1.696    -0.294    18.885     5.867
   162   6 C        3.704     0.146    18.367     6.127
   163   7 N        2.818    -0.045    22.100     6.982
   164   7 N        1.875    -0.176    25.610     7.502
   165   8 O        0.858    -0.346    20.627     6.089
   166   7 N        2.704    -0.176    24.819     7.399
   167   7 N        2.649    -0.219    25.784     7.541
   168   7 N        1.834    -0.241    27.138     7.720
   169   6 C        3.963     0.144    18.206     6.063
   170   6 C        3.825    -0.104    22.458     6.743
   171   6 C        3.820    -0.114    22.662     6.775
   172   6 C        3.869    -0.032    21.101     6.532
   173   6 C        3.806    -0.087    22.147     6.699
   174   8 O        1.658    -0.337    19.662     5.986
   175   1 H        0.926     0.117     1.640     2.003
   176   1 H        0.925     0.081     1.970     2.195
   177   1 H        0.925     0.125     1.571     1.960
   178   1 H        0.860     0.252     0.876     1.466
   179   1 H        0.860     0.258     0.854     1.448
   180   1 H        0.861     0.266     0.824     1.422
   181   1 H        0.925     0.121     1.606     1.982
   182   1 H        0.924     0.099     1.796     2.096
   183   1 H        0.926     0.115     1.657     2.013
   184   1 H        0.926     0.134     1.507     1.920
   185   1 H        0.925     0.151     1.383     1.839
   186   1 H        0.926     0.096     1.820     2.110
   187   1 H        0.925     0.114     1.667     2.019
   188  15 P        3.620     0.639   134.864    20.861
   189   8 O        0.808    -0.545    24.838     6.681
   190   8 O        0.808    -0.535    24.598     6.648
   191   8 O        1.657    -0.262    18.365     5.785
   192   6 C        4.022     0.159    17.971     6.022
   193   6 C        3.795     0.092    19.062     6.217
   194   8 O        1.695    -0.291    18.845     5.861
   195   6 C        3.703     0.147    18.347     6.124
   196   7 N        2.732    -0.068    22.557     7.054
   197   6 C        2.847     0.027    27.393     8.578
   198   6 C        2.947    -0.010    28.274     8.721
   199   6 C        3.756    -0.174    23.943     6.977
   200   6 C        2.840     0.155    24.642     8.135
   201   7 N        2.647    -0.165    24.578     7.363
   202   7 N        1.841    -0.324    29.242     8.014
   203   6 C        2.714     0.312    21.693     7.624
   204   8 O        0.859    -0.454    22.792     6.401
   205   6 C        3.964     0.142    18.231     6.067
   206   6 C        3.826    -0.097    22.329     6.724
   207   6 C        3.823    -0.115    22.671     6.776
   208   6 C        3.868    -0.033    21.121     6.535
   209   6 C        3.806    -0.087    22.148     6.700
   210   8 O        1.657    -0.337    19.665     5.986
   211   1 H        0.925     0.081     1.972     2.196
   212   1 H        0.926     0.123     1.591     1.973
   213   1 H        0.926     0.136     1.492     1.910
   214   1 H        0.926     0.118     1.630     1.997
   215   1 H        0.926     0.146     1.420     1.863
   216   1 H        0.926     0.165     1.296     1.780
   217   1 H        0.860     0.267     0.820     1.419
   218   1 H        0.860     0.295     0.727     1.336
   219   1 H        0.925     0.122     1.597     1.976
   220   1 H        0.924     0.095     1.835     2.118
   221   1 H        0.926     0.122     1.600     1.978
   222   1 H        0.926     0.132     1.522     1.930
   223   1 H        0.925     0.155     1.358     1.822
   224   1 H        0.926     0.088     1.901     2.156
   225   1 H        0.926     0.107     1.723     2.052
   226   6 C        3.754    -0.165    23.767     6.952
   227   6 C        2.839     0.021    27.541     8.600
   228   6 C        2.946    -0.013    28.345     8.732
   229   6 C        2.756     0.264    22.545     7.775
   230   6 C        2.693     0.299    21.918     7.662
   231  15 P        3.629     0.638   134.881    20.862
   232   8 O        0.808    -0.554    25.032     6.707
   233   8 O        0.808    -0.538    24.674     6.659
   234   8 O        1.658    -0.258    18.293     5.774
   235   6 C        4.027     0.158    17.989     6.025
   236   6 C        3.799     0.093    19.041     6.213
   237   8 O        1.696    -0.285    18.734     5.844
   238   6 C        3.702     0.143    18.419     6.136
   239   7 N        2.730    -0.053    22.271     7.009
   240   8 O        0.858    -0.329    20.320     6.044
   241   7 N        2.690    -0.174    24.777     7.393
   242   8 O        0.857    -0.433    22.355     6.339
   243   6 C        3.959     0.144    18.194     6.061
   244   6 C        3.826    -0.096    22.312     6.721
   245   6 C        3.823    -0.115    22.682     6.777
   246   6 C        3.872    -0.035    21.159     6.541
   247   6 C        3.806    -0.085    22.111     6.694
   248   8 O        1.658    -0.336    19.646     5.983
   249   1 H        0.925     0.154     1.364     1.827
   250   1 H        0.924     0.184     1.185     1.702
   251   1 H        0.925     0.110     1.701     2.039
   252   1 H        0.926     0.145     1.428     1.869
   253   1 H        0.925     0.075     2.030     2.228
   254   1 H        0.925     0.121     1.606     1.982
   255   1 H        0.860     0.247     0.896     1.483
   256   1 H        0.925     0.115     1.653     2.010
   257   1 H        0.924     0.088     1.901     2.156
   258   1 H        0.926     0.118     1.629     1.996
   259   1 H        0.926     0.125     1.576     1.963
   260   1 H        0.925     0.161     1.323     1.799
   261   1 H        0.926     0.085     1.925     2.169
   262   1 H        0.926     0.112     1.682     2.028
   263   6 C        3.755    -0.165    23.770     6.952
   264   6 C        2.839     0.025    27.446     8.586
   265   6 C        2.946    -0.010    28.269     8.720
   266   6 C        2.756     0.264    22.540     7.774
   267   6 C        2.694     0.312    21.699     7.624
   268  15 P        3.621     0.625   135.354    20.899
   269   8 O        0.808    -0.559    25.163     6.724
   270   8 O        0.808    -0.545    24.839     6.681
   271   8 O        1.658    -0.264    18.385     5.788
   272   6 C        4.032     0.159    17.969     6.022
   273   6 C        3.804     0.096    18.997     6.205
   274   8 O        1.696    -0.296    18.918     5.872
   275   6 C        3.703     0.154    18.249     6.108
   276   7 N        2.731    -0.049    22.197     6.997
   277   8 O        0.858    -0.330    20.324     6.044
   278   7 N        2.690    -0.168    24.635     7.372
   279   8 O        0.858    -0.445    22.601     6.374
   280   6 C        3.952     0.148    18.138     6.052
   281   6 C        3.829    -0.086    22.123     6.692
   282   6 C        3.825    -0.108    22.538     6.755
   283   6 C        3.868    -0.034    21.142     6.538
   284   6 C        3.805    -0.086    22.132     6.697
   285   8 O        1.657    -0.343    19.778     6.004
   286   1 H        0.925     0.188     1.160     1.685
   287   1 H        0.925     0.109     1.701     2.040
   288   1 H        0.925     0.152     1.379     1.836
   289   1 H        0.926     0.138     1.472     1.897
   290   1 H        0.925     0.063     2.166     2.301
   291   1 H        0.925     0.112     1.676     2.025
   292   1 H        0.860     0.247     0.896     1.483
   293   1 H        0.925     0.098     1.804     2.100
   294   1 H        0.924     0.081     1.964     2.192
   295   1 H        0.926     0.120     1.617     1.989
   296   1 H        0.926     0.117     1.638     2.001
   297   1 H        0.925     0.148     1.403     1.852
   298   1 H        0.926     0.079     1.991     2.206
   299   1 H        0.926     0.104     1.752     2.070
   300   8 O        0.808    -0.563    25.261     6.737
   301  15 P        3.586     0.604   136.089    20.956
   302   8 O        0.808    -0.551    24.979     6.700
   303   6 C        3.806    -0.087    22.153     6.700
   304   8 O        1.657    -0.282    18.691     5.836
   305   6 C        3.996     0.157    18.010     6.029
   306   6 C        3.868    -0.036    21.168     6.542
   307   6 C        3.794     0.102    18.907     6.192
   308   6 C        3.944     0.151    18.106     6.047
   309   6 C        3.819    -0.099    22.371     6.731
   310   8 O        1.656    -0.357    20.029     6.041
   311   6 C        3.824    -0.089    22.179     6.702
   312   6 C        3.706     0.163    18.101     6.082
   313   8 O        1.697    -0.315    19.260     5.925
   314   7 N        2.820    -0.055    22.294     7.013
   315   6 C        3.135     0.123    25.101     8.201
   316   7 N        1.825    -0.224    26.740     7.662
   317   6 C        2.901     0.133    25.084     8.212
   318   7 N        1.843    -0.253    27.444     7.764
   319   6 C        2.865     0.150    24.738     8.153
   320   7 N        2.646    -0.183    24.976     7.422
   321   6 C        3.201     0.005    27.341     8.520
   322   7 N        1.874    -0.187    25.867     7.539
   323   6 C        3.159     0.092    25.661     8.281
   324   1 H        0.926     0.079     1.992     2.207
   325   1 H        0.926     0.101     1.777     2.085
   326   1 H        0.925     0.135     1.501     1.916
   327   1 H        0.925     0.054     2.273     2.358
   328   1 H        0.926     0.099     1.791     2.093
   329   1 H        0.926     0.118     1.631     1.997
   330   1 H        0.925     0.106     1.728     2.056
   331   1 H        0.925     0.082     1.959     2.189
   332   1 H        0.925     0.097     1.812     2.105
   333   1 H        0.926     0.085     1.924     2.169
   334   1 H        0.860     0.278     0.781     1.385
   335   1 H        0.860     0.292     0.738     1.345
   336   1 H        0.926     0.091     1.868     2.137
   337  15 P        3.606     0.607   135.988    20.948
   338   8 O        0.808    -0.559    25.152     6.723
   339   8 O        0.808    -0.551    24.969     6.698
   340   8 O        1.658    -0.274    18.556     5.815
   341   6 C        4.019     0.165    17.881     6.007
   342   6 C        3.795     0.102    18.912     6.193
   343   8 O        1.696    -0.307    19.109     5.902
   344   6 C        3.700     0.161    18.152     6.093
   345   7 N        2.733    -0.060    22.398     7.029
   346   6 C        2.846     0.032    27.288     8.561
   347   6 C        2.947    -0.005    28.146     8.701
   348   6 C        3.755    -0.165    23.771     6.952
   349   6 C        2.841     0.158    24.581     8.125
   350   7 N        2.649    -0.165    24.578     7.363
   351   7 N        1.843    -0.284    28.224     7.873
   352   6 C        2.715     0.323    21.512     7.592
   353   8 O        0.859    -0.448    22.659     6.382
   354   6 C        3.800     0.132    18.449     6.115
   355   6 C        3.818    -0.103    22.459     6.745
   356   6 C        3.823    -0.118    22.737     6.785
   357   6 C        3.870    -0.027    21.016     6.519
   358   6 C        3.805    -0.085    22.111     6.694
   359   8 O        1.656    -0.475    22.358     6.383
   360   1 H        0.925     0.084     1.936     2.176
   361   1 H        0.925     0.110     1.700     2.039
   362   1 H        0.926     0.126     1.563     1.955
   363   1 H        0.926     0.166     1.289     1.776
   364   1 H        0.925     0.102     1.769     2.080
   365   1 H        0.926     0.153     1.374     1.833
   366   1 H        0.860     0.266     0.824     1.422
   367   1 H        0.860     0.295     0.730     1.338
   368   1 H        0.924     0.108     1.714     2.047
   369   1 H        0.924     0.110     1.693     2.035
   370   1 H        0.926     0.100     1.789     2.092
   371   1 H        0.925     0.125     1.572     1.960
   372   1 H        0.926     0.127     1.558     1.952
   373   1 H        0.926     0.108     1.713     2.047
   374   1 H        0.926     0.089     1.889     2.149
   375   1 H        0.805     0.375     0.534     1.148
   376   8 O        1.655    -0.417    21.178     6.212
   377   6 C        3.675     0.055    19.871     6.387
   378   6 C        3.782     0.092    19.082     6.223
   379   8 O        1.699    -0.294    18.898     5.869
   380   6 C        3.888     0.112    18.708     6.149
   381   8 O        1.659    -0.300    19.009     5.886
   382   6 C        3.749     0.092    19.125     6.237
   383   8 O        1.656    -0.417    21.179     6.213
   384   6 C        3.716     0.142    18.397     6.128
   385   7 N        2.827    -0.032    21.856     6.944
   386   6 C        3.163     0.101    25.461     8.247
   387   7 N        1.877    -0.168    25.439     7.477
   388   6 C        3.205     0.026    26.838     8.438
   389   6 C        2.761     0.278    22.300     7.733
   390   8 O        0.858    -0.370    21.096     6.158
   391   7 N        2.705    -0.169    24.648     7.374
   392   6 C        2.820     0.228    23.208     7.894
   393   7 N        2.649    -0.205    25.456     7.493
   394   7 N        1.833    -0.240    27.130     7.719
   395   6 C        3.100     0.137    24.891     8.176
   396   1 H        0.925     0.113     1.673     2.023
   397   1 H        0.925     0.075     2.034     2.230
   398   1 H        0.924     0.073     2.049     2.239
   399   1 H        0.925     0.084     1.936     2.176
   400   1 H        0.924     0.087     1.908     2.160
   401   1 H        0.805     0.349     0.591     1.208
   402   1 H        0.925     0.148     1.406     1.854
   403   1 H        0.926     0.130     1.539     1.940
   404   1 H        0.860     0.276     0.791     1.393
   405   1 H        0.860     0.277     0.787     1.390
   406   1 H        0.860     0.291     0.741     1.348
   407   1 H        0.805     0.369     0.547     1.161
   408  15 P        3.556     0.597   136.336    20.975
   409   8 O        0.808    -0.528    24.443     6.627
   410   8 O        0.808    -0.520    24.264     6.603
   411   8 O        1.657    -0.340    19.729     5.996
   412   6 C        3.856     0.077    19.260     6.242
   413   6 C        3.801     0.093    19.046     6.214
   414   8 O        1.697    -0.305    19.084     5.898
   415   6 C        3.953     0.129    18.420     6.099
   416   8 O        1.658    -0.333    19.603     5.977
   417   6 C        3.768     0.106    18.873     6.191
   418   8 O        1.656    -0.460    22.046     6.338
   419   6 C        3.732     0.144    18.349     6.114
   420   7 N        2.735    -0.073    22.651     7.069
   421   6 C        2.696     0.319    21.580     7.603
   422   8 O        0.858    -0.452    22.745     6.394
   423   7 N        2.692    -0.162    24.510     7.353
   424   6 C        2.756     0.278    22.300     7.733
   425   8 O        0.858    -0.348    20.664     6.095
   426   6 C        2.899    -0.077    29.912     8.967
   427   6 C        2.839     0.043    27.024     8.519
   428   1 H        0.925     0.079     1.988     2.205
   429   1 H        0.925     0.061     2.185     2.312
   430   1 H        0.924     0.080     1.975     2.197
   431   1 H        0.924     0.051     2.309     2.376
   432   1 H        0.925     0.046     2.371     2.408
   433   1 H        0.805     0.360     0.565     1.181
   434   1 H        0.924     0.128     1.553     1.949
   435   1 H        0.861     0.260     0.844     1.439
   436   1 H        0.927     0.153     1.374     1.833
   437   1 H        0.928     0.105     1.742     2.064
   438  15 P        3.649     0.570   137.328    21.051
   439   8 O        0.808    -0.538    24.674     6.659
   440   8 O        0.808    -0.523    24.321     6.611
   441   8 O        1.657    -0.331    19.563     5.971
   442   6 C        3.895     0.088    19.078     6.209
   443   6 C        3.810     0.092    19.053     6.213
   444   8 O        1.697    -0.299    18.974     5.881
   445   6 C        3.973     0.125    18.484     6.109
   446   8 O        1.658    -0.355    20.000     6.037
   447   6 C        3.780     0.104    18.889     6.191
   448   8 O        1.655    -0.449    21.817     6.305
   449   6 C        3.736     0.152    18.224     6.092
   450   7 N        2.821    -0.066    22.512     7.047
   451   6 C        3.156     0.108    25.329     8.229
   452   7 N        1.875    -0.193    26.020     7.561
   453   6 C        3.201     0.022    26.958     8.460
   454   6 C        2.865     0.155    24.648     8.138
   455   7 N        2.646    -0.187    25.055     7.434
   456   7 N        1.841    -0.260    27.613     7.788
   457   6 C        2.893     0.133    25.090     8.212
   458   7 N        1.825    -0.236    27.019     7.702
   459   6 C        3.120     0.130    24.994     8.188
   460   1 H        0.925     0.074     2.040     2.233
   461   1 H        0.925     0.043     2.403     2.424
   462   1 H        0.924     0.077     2.010     2.217
   463   1 H        0.924     0.040     2.444     2.445
   464   1 H        0.925     0.045     2.378     2.411
   465   1 H        0.805     0.317     0.672     1.288
   466   1 H        0.924     0.129     1.546     1.944
   467   1 H        0.926     0.075     2.035     2.231
   468   1 H        0.860     0.292     0.736     1.344
   469   1 H        0.860     0.292     0.738     1.346
   470   1 H        0.926     0.084     1.935     2.175
   471  15 P        3.640     0.565   137.507    21.065
[...]
   428   1 H    0.992 --   412 C    0.964
   429   1 H    0.995 --   412 C    0.967
   430   1 H    0.990 --   413 C    0.953
   431   1 H    0.997 --   415 C    0.953
   432   1 H    0.995 --   417 C    0.945
   433   1 H    0.870 --   418 O    0.850
   434   1 H    0.978 --   419 C    0.937
   435   1 H    0.931 --   423 N    0.847
   436   1 H    0.973 --   426 C    0.944
   437   1 H    0.985 --   427 C    0.945
   438  15 P    5.638 --   440 O    1.712   439 O    1.697   416 O    1.095
                           441 O    1.083
   439   8 O    1.870 --   438 P    1.697
   440   8 O    1.894 --   438 P    1.712
   441   8 O    2.248 --   438 P    1.083   442 C    0.959
   442   6 C    3.936 --   443 C    0.986   461 H    0.968   460 H    0.963
                           441 O    0.959
   443   6 C    3.949 --   442 C    0.986   444 O    0.967   445 C    0.965
                           462 H    0.953
   444   8 O    2.082 --   449 C    0.979   443 C    0.967
   445   6 C    3.929 --   447 C    0.969   443 C    0.965   463 H    0.954
                           446 O    0.949
   446   8 O    2.246 --   471 P    1.078   445 C    0.949
   447   6 C    3.964 --   448 O    0.997   449 C    0.971   445 C    0.969
                           464 H    0.946
   448   8 O    1.948 --   447 C    0.997   465 H    0.853
   449   6 C    3.930 --   444 O    0.979   447 C    0.971   450 N    0.950
                           466 H    0.941
   450   7 N    3.594 --   451 C    1.222   459 C    1.160   449 C    0.950
   451   6 C    3.920 --   452 N    1.577   450 N    1.222   467 H    0.949
   452   7 N    3.002 --   451 C    1.577   453 C    1.207
   453   6 C    3.883 --   459 C    1.286   452 N    1.207   454 C    1.162
   454   6 C    3.968 --   455 N    1.410   456 N    1.268   453 C    1.162
   455   7 N    3.410 --   454 C    1.410   469 H    0.898   468 H    0.853
   456   7 N    3.010 --   457 C    1.424   454 C    1.268
   457   6 C    3.936 --   458 N    1.425   456 N    1.424   470 H    0.952
   458   7 N    2.931 --   457 C    1.425   459 C    1.260
   459   6 C    3.906 --   453 C    1.286   458 N    1.260   450 N    1.160
   460   1 H    0.991 --   442 C    0.963
   461   1 H    0.996 --   442 C    0.968
   462   1 H    0.991 --   443 C    0.953
   463   1 H    0.998 --   445 C    0.954
   464   1 H    0.997 --   447 C    0.946
   465   1 H    0.899 --   448 O    0.853
   466   1 H    0.983 --   449 C    0.941
   467   1 H    0.993 --   451 C    0.949
   468   1 H    0.913 --   455 N    0.853
   469   1 H    0.915 --   455 N    0.898
   470   1 H    0.992 --   457 C    0.952
   471  15 P    5.646 --   473 O    1.731   472 O    1.714   446 O    1.078
                           474 O    1.075
   472   8 O    1.898 --   471 P    1.714
   473   8 O    1.921 --   471 P    1.731
   474   8 O    2.248 --   471 P    1.075   475 C    0.962
   475   6 C    3.944 --   476 C    0.984   494 H    0.967   474 O    0.962
                           493 H    0.945
   476   6 C    3.954 --   475 C    0.984   478 C    0.970   477 O    0.968
                           495 H    0.955
   477   8 O    2.082 --   482 C    0.981   476 C    0.968
   478   6 C    3.934 --   476 C    0.970   480 C    0.968   496 H    0.956
                           479 O    0.948
   479   8 O    2.252 --   504 P    1.084   478 C    0.948
   480   6 C    3.965 --   481 O    0.998   482 C    0.971   478 C    0.968
                           497 H    0.946
   481   8 O    1.947 --   480 C    0.998   498 H    0.854
   482   6 C    3.929 --   477 O    0.981   480 C    0.971   483 N    0.948
                           499 H    0.940
   483   7 N    3.585 --   484 C    1.216   492 C    1.156   482 C    0.948
   484   6 C    3.923 --   485 N    1.586   483 N    1.216   500 H    0.951
   485   7 N    3.009 --   484 C    1.586   486 C    1.205
   486   6 C    3.881 --   492 C    1.287   485 N    1.205   487 C    1.161
   487   6 C    3.970 --   488 N    1.418   489 N    1.265   486 C    1.161
   488   7 N    3.417 --   487 C    1.418   502 H    0.899   501 H    0.852
   489   7 N    3.015 --   490 C    1.425   487 C    1.265
   490   6 C    3.934 --   489 N    1.425   491 N    1.423   503 H    0.950
   491   7 N    2.934 --   490 C    1.423   492 C    1.261
   492   6 C    3.905 --   486 C    1.287   491 N    1.261   483 N    1.156
   493   1 H    0.997 --   475 C    0.945
   494   1 H    0.998 --   475 C    0.967
   495   1 H    0.993 --   476 C    0.955
   496   1 H    0.999 --   478 C    0.956
   497   1 H    0.997 --   480 C    0.946
   498   1 H    0.898 --   481 O    0.854
   499   1 H    0.984 --   482 C    0.940
   500   1 H    0.995 --   484 C    0.951
   501   1 H    0.907 --   488 N    0.852
   502   1 H    0.916 --   488 N    0.899
   503   1 H    0.990 --   490 C    0.950
   504  15 P    5.669 --   506 O    1.731   505 O    1.720   507 O    1.085
                           479 O    1.084
   505   8 O    1.910 --   504 P    1.720
   506   8 O    1.927 --   504 P    1.731
   507   8 O    2.251 --   504 P    1.085   508 C    0.957
   508   6 C    3.942 --   509 C    0.985   528 H    0.968   507 O    0.957
                           527 H    0.946
   509   6 C    3.958 --   508 C    0.985   511 C    0.972   510 O    0.969
                           529 H    0.953
   510   8 O    2.077 --   515 C    0.976   509 C    0.969
   511   6 C    3.933 --   509 C    0.972   513 C    0.964   530 H    0.954
                           512 O    0.950
   512   8 O    2.250 --   538 P    1.084   511 C    0.950
   513   6 C    3.962 --   514 O    1.007   511 C    0.964   515 C    0.962
                           531 H    0.949
   514   8 O    1.962 --   513 C    1.007   532 H    0.865
   515   6 C    3.921 --   510 O    0.976   513 C    0.962   516 N    0.949
                           533 H    0.937
   516   7 N    3.601 --   517 C    1.224   526 C    1.162   515 C    0.949
   517   6 C    3.864 --   518 N    1.550   516 N    1.224   534 H    0.952
   518   7 N    2.992 --   517 C    1.550   519 C    1.243
   519   6 C    3.822 --   526 C    1.264   518 N    1.243   520 C    1.094
   520   6 C    3.956 --   521 O    1.670   522 N    1.107   519 C    1.094
   521   8 O    1.999 --   520 C    1.670   522 N    0.143
   522   7 N    3.496 --   523 C    1.181   520 C    1.107   535 H    0.842
                           521 O    0.143
   523   6 C    3.952 --   524 N    1.380   525 N    1.314   522 N    1.181
   524   7 N    3.381 --   523 C    1.380   537 H    0.915   536 H    0.845
   525   7 N    2.872 --   523 C    1.314   526 C    1.291
   526   6 C    3.894 --   525 N    1.291   519 C    1.264   516 N    1.162
   527   1 H    0.997 --   508 C    0.946
   528   1 H    0.998 --   508 C    0.968
   529   1 H    0.994 --   509 C    0.953
   530   1 H    0.998 --   511 C    0.954
   531   1 H    0.993 --   513 C    0.949
   532   1 H    0.882 --   514 O    0.865
   533   1 H    0.981 --   515 C    0.937
   534   1 H    0.996 --   517 C    0.952
   535   1 H    0.922 --   522 N    0.842
   536   1 H    0.917 --   524 N    0.845
   537   1 H    0.938 --   524 N    0.915
   538  15 P    5.670 --   540 O    1.719   539 O    1.707   541 O    1.110
                           512 O    1.084
   539   8 O    1.891 --   538 P    1.707
   540   8 O    1.911 --   538 P    1.719
   541   8 O    2.268 --   538 P    1.110   542 C    0.952
   542   6 C    3.935 --   543 C    0.987   559 H    0.968   558 H    0.961
                           541 O    0.952
   543   6 C    3.957 --   542 C    0.987   545 C    0.973   544 O    0.972
                           560 H    0.954
   544   8 O    2.079 --   549 C    0.974   543 C    0.972
   545   6 C    3.928 --   543 C    0.973   547 C    0.968   561 H    0.954
                           546 O    0.944
   546   8 O    2.258 --   569 P    1.098   545 C    0.944
   547   6 C    3.954 --   548 O    1.007   545 C    0.968   549 C    0.952
                           562 H    0.947
   548   8 O    1.929 --   547 C    1.007   563 H    0.840
   549   6 C    3.916 --   544 O    0.974   550 N    0.958   547 C    0.952
                           564 H    0.932
   550   7 N    3.519 --   557 C    1.214   551 C    1.037   549 C    0.958
                           552 O    0.104
   551   6 C    3.940 --   552 O    1.565   553 N    1.248   550 N    1.037
   552   8 O    1.970 --   551 C    1.565   553 N    0.134   550 N    0.104
   553   7 N    3.024 --   554 C    1.326   551 C    1.248   552 O    0.134
                           555 N    0.107
   554   6 C    3.974 --   555 N    1.417   553 N    1.326   556 C    1.141
   555   7 N    3.447 --   554 C    1.417   566 H    0.908   565 H    0.856
                           553 N    0.107
   556   6 C    3.910 --   557 C    1.620   554 C    1.141   567 H    0.955
   557   6 C    3.944 --   556 C    1.620   550 N    1.214   568 H    0.955
   558   1 H    0.994 --   542 C    0.961
   559   1 H    0.999 --   542 C    0.968
   560   1 H    0.993 --   543 C    0.954
   561   1 H    0.998 --   545 C    0.954
   562   1 H    0.995 --   547 C    0.947
   563   1 H    0.855 --   548 O    0.840
   564   1 H    0.978 --   549 C    0.932
   565   1 H    0.913 --   555 N    0.856
   566   1 H    0.925 --   555 N    0.908
   567   1 H    0.986 --   556 C    0.955
   568   1 H    0.994 --   557 C    0.955
   569  15 P    5.682 --   570 O    1.714   571 O    1.713   572 O    1.103
                           546 O    1.098
   570   8 O    1.898 --   569 P    1.714
   571   8 O    1.902 --   569 P    1.713
   572   8 O    2.253 --   569 P    1.103   573 C    0.947
   573   6 C    3.929 --   574 C    0.986   590 H    0.969   589 H    0.959
                           572 O    0.947
   574   6 C    3.955 --   573 C    0.986   576 C    0.973   575 O    0.969
                           591 H    0.952
   575   8 O    2.074 --   580 C    0.970   574 C    0.969
   576   6 C    3.928 --   574 C    0.973   578 C    0.969   592 H    0.953
                           577 O    0.947
   577   8 O    2.261 --   600 P    1.098   576 C    0.947
   578   6 C    3.955 --   579 O    1.007   576 C    0.969   580 C    0.953
                           593 H    0.947
   579   8 O    1.926 --   578 C    1.007   594 H    0.839
   580   6 C    3.913 --   575 O    0.970   581 N    0.957   578 C    0.953
                           595 H    0.934
   581   7 N    3.516 --   588 C    1.213   582 C    1.043   580 C    0.957
                           583 O    0.105
   582   6 C    3.940 --   583 O    1.554   584 N    1.252   581 N    1.043
   583   8 O    1.956 --   582 C    1.554   584 N    0.134   581 N    0.105
   584   7 N    3.027 --   585 C    1.326   582 C    1.252   583 O    0.134
                           586 N    0.105
   585   6 C    3.971 --   586 N    1.414   584 N    1.326   587 C    1.142
   586   7 N    3.435 --   585 C    1.414   597 H    0.909   596 H    0.860
                           584 N    0.105
   587   6 C    3.898 --   588 C    1.623   585 C    1.142   598 H    0.955
   588   6 C    3.945 --   587 C    1.623   581 N    1.213   599 H    0.956
   589   1 H    0.992 --   573 C    0.959
   590   1 H    0.998 --   573 C    0.969
   591   1 H    0.991 --   574 C    0.952
   592   1 H    0.998 --   576 C    0.953
   593   1 H    0.996 --   578 C    0.947
   594   1 H    0.853 --   579 O    0.839
   595   1 H    0.978 --   580 C    0.934
   596   1 H    0.917 --   586 N    0.860
   597   1 H    0.927 --   586 N    0.909
   598   1 H    0.987 --   587 C    0.955
   599   1 H    0.994 --   588 C    0.956
   600  15 P    5.679 --   602 O    1.716   601 O    1.710   603 O    1.102
                           577 O    1.098
   601   8 O    1.895 --   600 P    1.710
   602   8 O    1.906 --   600 P    1.716
   603   8 O    2.258 --   600 P    1.102   604 C    0.949
   604   6 C    3.931 --   605 C    0.986   624 H    0.969   623 H    0.961
                           603 O    0.949
   605   6 C    3.956 --   604 C    0.986   607 C    0.970   606 O    0.970
                           625 H    0.953
   606   8 O    2.084 --   611 C    0.983   605 C    0.970
   607   6 C    3.931 --   605 C    0.970   609 C    0.965   626 H    0.957
                           608 O    0.945
   608   8 O    2.251 --   634 P    1.087   607 C    0.945
   609   6 C    3.967 --   610 O    1.004   611 C    0.969   607 C    0.965
                           627 H    0.945
   610   8 O    1.954 --   609 C    1.004   628 H    0.846
   611   6 C    3.919 --   606 O    0.983   609 C    0.969   612 N    0.946
                           629 H    0.931
   612   7 N    3.607 --   613 C    1.228   622 C    1.165   611 C    0.946
   613   6 C    3.864 --   614 N    1.548   612 N    1.228   630 H    0.952
   614   7 N    2.991 --   613 C    1.548   615 C    1.245
   615   6 C    3.826 --   622 C    1.265   614 N    1.245   616 C    1.099
   616   6 C    3.953 --   617 O    1.660   618 N    1.107   615 C    1.099
   617   8 O    1.984 --   616 C    1.660   618 N    0.141
   618   7 N    3.496 --   619 C    1.177   616 C    1.107   631 H    0.847
                           617 O    0.141
   619   6 C    3.951 --   620 N    1.380   621 N    1.316   618 N    1.177
   620   7 N    3.381 --   619 C    1.380   633 H    0.907   632 H    0.865
   621   7 N    2.869 --   619 C    1.316   622 C    1.286
   622   6 C    3.891 --   621 N    1.286   615 C    1.265   612 N    1.165
   623   1 H    0.993 --   604 C    0.961
   624   1 H    0.998 --   604 C    0.969
   625   1 H    0.991 --   605 C    0.953
   626   1 H    0.999 --   607 C    0.957
   627   1 H    0.997 --   609 C    0.945
   628   1 H    0.899 --   610 O    0.846
   629   1 H    0.976 --   611 C    0.931
   630   1 H    0.996 --   613 C    0.952
   631   1 H    0.929 --   618 N    0.847
   632   1 H    0.924 --   620 N    0.865
   633   1 H    0.927 --   620 N    0.907
   634  15 P    5.672 --   636 O    1.723   635 O    1.718   637 O    1.091
                           608 O    1.087
   635   8 O    1.907 --   634 P    1.718
   636   8 O    1.916 --   634 P    1.723
   637   8 O    2.252 --   634 P    1.091   638 C    0.951
   638   6 C    3.935 --   639 C    0.984   657 H    0.966   637 O    0.951
                           656 H    0.938
   639   6 C    3.955 --   638 C    0.984   640 O    0.973   641 C    0.972
                           658 H    0.951
   640   8 O    2.081 --   645 C    0.977   639 C    0.973
   641   6 C    3.938 --   639 C    0.972   643 C    0.969   659 H    0.954
                           642 O    0.952
   642   8 O    2.254 --   667 P    1.085   641 C    0.952
   643   6 C    3.969 --   644 O    1.002   641 C    0.969   645 C    0.968
                           660 H    0.953
   644   8 O    1.945 --   643 C    1.002   661 H    0.859
   645   6 C    3.919 --   640 O    0.977   643 C    0.968   646 N    0.950
                           662 H    0.933
   646   7 N    3.591 --   647 C    1.215   655 C    1.161   645 C    0.950
   647   6 C    3.950 --   648 N    1.598   646 N    1.215   663 H    0.952
   648   7 N    3.015 --   647 C    1.598   649 C    1.193
   649   6 C    3.903 --   655 C    1.293   648 N    1.193   650 C    1.175
   650   6 C    3.971 --   651 N    1.371   652 N    1.288   649 C    1.175
   651   7 N    3.449 --   650 C    1.371   665 H    0.917   664 H    0.873
   652   7 N    3.035 --   653 C    1.407   650 C    1.288
   653   6 C    3.929 --   654 N    1.439   652 N    1.407   666 H    0.943
   654   7 N    2.966 --   653 C    1.439   655 C    1.257
   655   6 C    3.920 --   649 C    1.293   654 N    1.257   646 N    1.161
   656   1 H    0.997 --   638 C    0.938
   657   1 H    0.998 --   638 C    0.966
   658   1 H    0.991 --   639 C    0.951
   659   1 H    0.999 --   641 C    0.954
   660   1 H    0.996 --   643 C    0.953
   661   1 H    0.885 --   644 O    0.859
   662   1 H    0.979 --   645 C    0.933
   663   1 H    0.997 --   647 C    0.952
   664   1 H    0.921 --   651 N    0.873
   665   1 H    0.934 --   651 N    0.917
   666   1 H    0.983 --   653 C    0.943
   667  15 P    5.683 --   668 O    1.723   669 O    1.706   670 O    1.117
                           642 O    1.085
   668   8 O    1.913 --   667 P    1.723
   669   8 O    1.896 --   667 P    1.706
   670   8 O    2.265 --   667 P    1.117   671 C    0.940
   671   6 C    3.923 --   672 C    0.986   691 H    0.964   690 H    0.956
                           670 O    0.940
   672   6 C    3.942 --   671 C    0.986   674 C    0.966   673 O    0.962
                           692 H    0.951
   673   8 O    2.073 --   678 C    0.983   672 C    0.962
   674   6 C    3.956 --   675 O    1.010   672 C    0.966   693 H    0.960
                           676 C    0.955
   675   8 O    1.939 --   674 C    1.010   694 H    0.847
   676   6 C    3.961 --   677 O    1.010   678 C    0.963   695 H    0.957
                           674 C    0.955
   677   8 O    1.939 --   676 C    1.010   696 H    0.847
   678   6 C    3.912 --   673 O    0.983   676 C    0.963   679 N    0.943
                           697 H    0.933
   679   7 N    3.610 --   680 C    1.248   689 C    1.158   678 C    0.943
   680   6 C    3.859 --   681 N    1.529   679 N    1.248   698 H    0.960
   681   7 N    2.981 --   680 C    1.529   682 C    1.258
   682   6 C    3.816 --   689 C    1.262   681 N    1.258   683 C    1.090
   683   6 C    3.948 --   684 O    1.670   685 N    1.109   682 C    1.090
   684   8 O    1.947 --   683 C    1.670   685 N    0.139
   685   7 N    3.515 --   686 C    1.179   683 C    1.109   699 H    0.892
                           684 O    0.139
   686   6 C    3.943 --   687 N    1.389   688 N    1.305   685 N    1.179
   687   7 N    3.379 --   686 C    1.389   700 H    0.904   701 H    0.895
   688   7 N    2.844 --   686 C    1.305   689 C    1.301
   689   6 C    3.890 --   688 N    1.301   682 C    1.262   679 N    1.158
   690   1 H    0.996 --   671 C    0.956
   691   1 H    0.995 --   671 C    0.964
   692   1 H    0.991 --   672 C    0.951
   693   1 H    0.998 --   674 C    0.960
   694   1 H    0.869 --   675 O    0.847
   695   1 H    0.994 --   676 C    0.957
   696   1 H    0.864 --   677 O    0.847
   697   1 H    0.977 --   678 C    0.933
   698   1 H    0.995 --   680 C    0.960
   699   1 H    0.924 --   685 N    0.892
   700   1 H    0.924 --   687 N    0.904
   701   1 H    0.912 --   687 N    0.895
 ---------------------------------------------------------------------------

Topologies differ in total number of bonds
Writing topology from bond orders to xtbtopo.mol

molecular dipole:
                 x           y           z       tot (Debye)
 q only:       35.053     -19.199      74.746
   full:       29.448     -19.860      67.219     193.239
molecular quadrupole (traceless):
                xx          xy          yy          xz          yz          zz
 q only:    -1495.669     327.614   -1110.637    -607.935    1387.022    2606.306
  q+dip:    -1400.407     335.294   -1038.629    -711.343    1259.708    2439.035
   full:    -1420.059     334.541   -1062.903    -713.723    1259.955    2482.961


           -------------------------------------------------
          | TOTAL ENERGY            -1399.216543246387 Eh   |
          | GRADIENT NORM               0.527154835280 Eh/α |
          | HOMO-LUMO GAP               0.002624819511 eV   |
           -------------------------------------------------

------------------------------------------------------------------------
 * finished run on 2023/04/11 at 13:23:11.026     
------------------------------------------------------------------------
 total:
 * wall-time:     0 d,  0 h,  0 min, 40.457 sec
 *  cpu-time:     0 d,  0 h,  6 min, 32.385 sec
 * ratio c/w:     9.699 speedup
 SCF:
 * wall-time:     0 d,  0 h,  0 min, 39.112 sec
 *  cpu-time:     0 d,  0 h,  6 min, 25.815 sec
 * ratio c/w:     9.864 speedup

