      -----------------------------------------------------------      
     |                   =====================                   |     
     |                           x T B                           |     
     |                   =====================                   |     
     |                         S. Grimme                         |     
     |          Mulliken Center for Theoretical Chemistry        |     
     |                    University of Bonn                     |     
      -----------------------------------------------------------      

   * xtb version 6.5.1 (579679a) compiled by 'ehlert@majestix' on 2022-07-11

   xtb is free software: you can redistribute it and/or modify it under
   the terms of the GNU Lesser General Public License as published by
   the Free Software Foundation, either version 3 of the License, or
   (at your option) any later version.
   
   xtb is distributed in the hope that it will be useful,
   but WITHOUT ANY WARRANTY; without even the implied warranty of
   MERCHANTABILITY or FITNESS FOR A PARTICULAR PURPOSE.  See the
   GNU Lesser General Public License for more details.
   
   Cite this work as:
   * C. Bannwarth, E. Caldeweyher, S. Ehlert, A. Hansen, P. Pracht,
     J. Seibert, S. Spicher, S. Grimme, WIREs Comput. Mol. Sci., 2020, 11,
     e01493. DOI: 10.1002/wcms.1493
   
   for GFN2-xTB:
   * C. Bannwarth, S. Ehlert and S. Grimme., J. Chem. Theory Comput., 2019,
     15, 1652-1671. DOI: 10.1021/acs.jctc.8b01176
   for GFN1-xTB:
   * S. Grimme, C. Bannwarth, P. Shushkov, J. Chem. Theory Comput., 2017,
     13, 1989-2009. DOI: 10.1021/acs.jctc.7b00118
   for GFN0-xTB:
   * P. Pracht, E. Caldeweyher, S. Ehlert, S. Grimme, ChemRxiv, 2019, preprint.
     DOI: 10.26434/chemrxiv.8326202.v1
   for GFN-FF:
   * S. Spicher and S. Grimme, Angew. Chem. Int. Ed., 2020, 59, 15665-15673.
     DOI: 10.1002/anie.202004239
   
   for ALPB and GBSA implicit solvation:
   * S. Ehlert, M. Stahn, S. Spicher, S. Grimme, J. Chem. Theory Comput.,
     2021, 17, 4250-4261. DOI: 10.1021/acs.jctc.1c00471
   
   for DFT-D4:
   * E. Caldeweyher, C. Bannwarth and S. Grimme, J. Chem. Phys., 2017,
     147, 034112. DOI: 10.1063/1.4993215
   * E. Caldeweyher, S. Ehlert, A. Hansen, H. Neugebauer, S. Spicher,
     C. Bannwarth and S. Grimme, J. Chem. Phys., 2019, 150, 154122.
     DOI: 10.1063/1.5090222
   * E. Caldeweyher, J.-M. Mewes, S. Ehlert and S. Grimme, Phys. Chem. Chem. Phys.
     2020, 22, 8499-8512. DOI: 10.1039/D0CP00502A
   
   for sTDA-xTB:
   * S. Grimme and C. Bannwarth, J. Chem. Phys., 2016, 145, 054103.
     DOI: 10.1063/1.4959605
   
   in the mass-spec context:
   * V. Asgeirsson, C. Bauer and S. Grimme, Chem. Sci., 2017, 8, 4879.
     DOI: 10.1039/c7sc00601b
   * J. Koopman and S. Grimme, ACS Omega 2019, 4, 12, 15120-15133.
     DOI: 10.1021/acsomega.9b02011
   
   for metadynamics refer to:
   * S. Grimme, J. Chem. Theory Comput., 2019, 155, 2847-2862
     DOI: 10.1021/acs.jctc.9b00143
   
   for SPH calculations refer to:
   * S. Spicher and S. Grimme, J. Chem. Theory Comput., 2021, 17, 1701-1714
     DOI: 10.1021/acs.jctc.0c01306
   
   with help from (in alphabetical order)
   P. Atkinson, C. Bannwarth, F. Bohle, G. Brandenburg, E. Caldeweyher
   M. Checinski, S. Dohm, S. Ehlert, S. Ehrlich, I. Gerasimov, C. Hölzer
   A. Katbashev, J. Koopman, C. Lavigne, S. Lehtola, F. März, M. Müller,
   F. Musil, H. Neugebauer, J. Pisarek, C. Plett, P. Pracht, F. Pultar,
   J. Seibert, P. Shushkov, S. Spicher, M. Stahn, M. Steiner, T. Strunk,
   J. Stückrath, T. Rose, and J. Unsleber
   
 * started run on 2023/04/12 at 14:27:05.907     

           -------------------------------------------------
          |                Calculation Setup                |
           -------------------------------------------------

          program call               : /N/u/schandy/BigRed3/bin/xtb-6.5.1/bin/xtb 7bfx_min.xyz --alpb water
          hostname                   : nid00026
          coordinate file            : 7bfx_min.xyz
          omp threads                :                    10

   ID    Z sym.   atoms
    1    8 O      1, 4, 6, 32-34, 37, 39, 47, 65-67, 70, 72, 77, 95-97, 100,
                  102, 127-129, 132, 134, 159-161, 164, 166, 171, 174,
                  191-193, 196, 198, 203, 221-223, 226, 228, 233, 251-253,
                  256, 258, 263, 281-283, 286, 288, 293, 311-313, 316, 318,
                  323, 341-343, 346, 348, 353, 371-373, 376, 378, 386,
                  404-406, 409, 411, 419, 437-439, 442, 444, 469-471, 474,
                  476, 481, 484, 501-503, 506, 508, 513, 516, 533-535, 538,
                  540, 548, 566-568, 571, 573, 578, 596-598, 601, 603, 608,
                  611
    2    6 C      2, 3, 5, 7, 8, 10, 12, 13, 16, 18, 35, 36, 38, 40, 41, 43,
                  45, 46, 49, 52, 68, 69, 71, 73, 74, 76, 79, 81, 82, 98, 99,
                  101, 103, 104, 106, 108, 109, 112, 114, 130, 131, 133, 135,
                  136, 138, 140, 141, 144, 146, 162, 163, 165, 167, 168, 170,
                  173, 175-177, 194, 195, 197, 199, 200, 202, 205, 207, 208,
                  224, 225, 227, 229, 230, 232, 235, 237, 238, 254, 255, 257,
                  259, 260, 262, 265, 267, 268, 284, 285, 287, 289, 290, 292,
                  295, 297, 298, 314, 315, 317, 319, 320, 322, 325, 327, 328,
                  344, 345, 347, 349, 350, 352, 355, 357, 358, 374, 375, 377,
                  379, 380, 382, 384, 385, 388, 391, 407, 408, 410, 412, 413,
                  415, 417, 418, 421, 424, 440, 441, 443, 445, 446, 448, 450,
                  451, 454, 456, 472, 473, 475, 477, 478, 480, 483, 485-487,
                  504, 505, 507, 509, 510, 512, 515, 517-519, 536, 537, 539,
                  541, 542, 544, 546, 547, 550, 553, 569, 570, 572, 574, 575,
                  577, 580, 582, 583, 599, 600, 602, 604, 605, 607, 610,
                  612-614
    3    7 N      9, 11, 14, 15, 17, 42, 44, 48, 50, 51, 75, 78, 80, 105,
                  107, 110, 111, 113, 137, 139, 142, 143, 145, 169, 172, 201,
                  204, 206, 231, 234, 236, 261, 264, 266, 291, 294, 296, 321,
                  324, 326, 351, 354, 356, 381, 383, 387, 389, 390, 414, 416,
                  420, 422, 423, 447, 449, 452, 453, 455, 479, 482, 511, 514,
                  543, 545, 549, 551, 552, 576, 579, 581, 606, 609
    4    1 H      19-30, 53-63, 83-93, 115-125, 147-157, 178-189, 209-219,
                  239-249, 269-279, 299-309, 329-339, 359-369, 392-402,
                  425-435, 457-467, 488-499, 520-531, 554-564, 584-594,
                  615-627
    5   15 P      31, 64, 94, 126, 158, 190, 220, 250, 280, 310, 340, 370,
                  403, 436, 468, 500, 532, 565, 595

           -------------------------------------------------
          |                 G F N 2 - x T B                 |
           -------------------------------------------------

        Reference                      10.1021/acs.jctc.8b01176
      * Hamiltonian:
        H0-scaling (s, p, d)           1.850000    2.230000    2.230000
        zeta-weighting                 0.500000
      * Dispersion:
        s8                             2.700000
        a1                             0.520000
        a2                             5.000000
        s9                             5.000000
      * Repulsion:
        kExp                           1.500000    1.000000
        rExp                           1.000000
      * Coulomb:
        alpha                          2.000000
        third order                    shell-resolved
        anisotropic                    true
        a3                             3.000000
        a5                             4.000000
        cn-shift                       1.200000
        cn-exp                         4.000000
        max-rad                        5.000000

      * Solvation model:               ALPB
        Solvent                        water
        Parameter file                 internal GFN2-xTB/ALPB
        Dielectric constant                8.0200E+01
        Reference state                gsolv [1 M gas/solution]
        Free energy shift                  1.0808E-03 Eh       6.7819E-01 kcal/mol
        Temperature                        2.9815E+02 K
        Density                            1.0000E+00 kg/L
        Solvent mass                       1.8000E+01 g/mol
        Interaction kernel             P16
        Born radius scaling (c1)           1.4744E+00
        Born radii integrator          GBOBC
        Born offset                        0.0000E+00 a0       0.0000E+00 AA
        H-bond correction              true
        Ion screening                  false
        Surface tension                    1.0000E-05 Eh       1.5569E+01 dyn/cm
        Grid points                               230 per atom

          ...................................................
          :                      SETUP                      :
          :.................................................:
          :  # basis functions                1944          :
          :  # atomic orbitals                1925          :
          :  # shells                         1047          :
          :  # electrons                      2157          :
          :  max. iterations                   250          :
          :  Hamiltonian                  GFN2-xTB          :
          :  restarted?                      false          :
          :  GBSA solvation                   true          :
          :  PC potential                    false          :
          :  electronic temp.          300.0000000     K    :
          :  accuracy                    1.0000000          :
          :  -> integral cutoff          0.2500000E+02      :
          :  -> integral neglect         0.1000000E-07      :
          :  -> SCF convergence          0.1000000E-05 Eh   :
          :  -> wf. convergence          0.1000000E-03 e    :
          :  Broyden damping             0.4000000          :
          ...................................................

 iter      E             dE          RMSdq      gap      omega  full diag
   1  -1273.8666376 -0.127387E+04  0.654E+00    0.00       0.0  T
   2  -1275.5546412 -0.168800E+01  0.413E+00    0.00       1.0  T
   3  -1275.3018650  0.252776E+00  0.303E+00    0.00       1.0  T
   4  -1278.0232835 -0.272142E+01  0.224E+00    0.02       1.0  T
   5  -1277.4120966  0.611187E+00  0.211E+00    0.00       1.0  T
   6  -1277.4555139 -0.434173E-01  0.179E+00    0.01       1.0  T
   7  -1278.3053831 -0.849869E+00  0.150E+00    0.00       1.0  T
   8  -1278.4207657 -0.115383E+00  0.156E+00    0.00       1.0  T
   9  -1278.6548461 -0.234080E+00  0.147E+00    0.02       1.0  T
  10  -1278.6030534  0.517927E-01  0.133E+00    0.01       1.0  T
  11  -1278.9158282 -0.312775E+00  0.118E+00    0.01       1.0  T
  12  -1279.0090975 -0.932692E-01  0.106E+00    0.00       1.0  T
  13  -1279.3636057 -0.354508E+00  0.102E+00    0.00       1.0  T
  14  -1279.4111573 -0.475516E-01  0.995E-01    0.00       1.0  T
  15  -1279.5647779 -0.153621E+00  0.918E-01    0.00       1.0  T
  16  -1279.5870007 -0.222228E-01  0.798E-01    0.00       1.0  T
  17  -1279.5320114  0.549893E-01  0.808E-01    0.00       1.0  T
  18  -1279.6468448 -0.114833E+00  0.754E-01    0.00       1.0  T
  19  -1279.4916884  0.155156E+00  0.941E-01    0.00       1.0  T
  20  -1279.8524913 -0.360803E+00  0.582E-01    0.01       1.0  T
  21  -1279.4494534  0.403038E+00  0.865E-01    0.01       1.0  T
  22  -1279.5682028 -0.118749E+00  0.866E-01    0.01       1.0  T
  23  -1279.9404614 -0.372259E+00  0.562E-01    0.00       1.0  T
  24  -1280.0454315 -0.104970E+00  0.424E-01    0.00       1.0  T
  25  -1280.0631569 -0.177254E-01  0.386E-01    0.00       1.0  T
  26  -1280.0861640 -0.230071E-01  0.342E-01    0.00       1.0  T
  27  -1280.1198652 -0.337012E-01  0.288E-01    0.00       1.0  T
  28  -1280.0829191  0.369461E-01  0.315E-01    0.01       1.0  T
  29  -1280.1507668 -0.678477E-01  0.212E-01    0.00       1.0  T
  30  -1280.1496694  0.109739E-02  0.209E-01    0.00       1.0  T
  31  -1280.1669103 -0.172409E-01  0.165E-01    0.00       1.0  T
  32  -1280.1708248 -0.391449E-02  0.160E-01    0.00       1.0  T
  33  -1280.1810665 -0.102417E-01  0.119E-01    0.00       1.0  T
  34  -1280.1841438 -0.307727E-02  0.979E-02    0.00       1.0  T
  35  -1280.1878048 -0.366101E-02  0.834E-02    0.00       1.0  T
  36  -1280.1889205 -0.111575E-02  0.746E-02    0.00       1.0  T
  37  -1280.1882770  0.643527E-03  0.797E-02    0.00       1.0  T
  38  -1280.1914596 -0.318259E-02  0.518E-02    0.00       1.0  T
  39  -1280.1916720 -0.212449E-03  0.480E-02    0.00       1.0  T
  40  -1280.1929724 -0.130032E-02  0.368E-02    0.00       1.0  T
  41  -1280.1926454  0.326943E-03  0.365E-02    0.00       1.0  T
  42  -1280.1930994 -0.453938E-03  0.322E-02    0.00       1.0  T
  43  -1280.1930367  0.626160E-04  0.329E-02    0.00       1.0  T
  44  -1280.1936293 -0.592573E-03  0.211E-02    0.00       1.0  T
  45  -1280.1937603 -0.130992E-03  0.182E-02    0.00       1.0  T
  46  -1280.1932621  0.498179E-03  0.282E-02    0.00       1.0  T
  47  -1280.1936192 -0.357102E-03  0.209E-02    0.00       1.0  T
  48  -1280.1938262 -0.206981E-03  0.161E-02    0.00       1.0  T
  49  -1280.1938675 -0.413167E-04  0.143E-02    0.00       1.0  T
  50  -1280.1939141 -0.465338E-04  0.129E-02    0.00       1.0  T
  51  -1280.1940116 -0.975517E-04  0.852E-03    0.00       1.0  T
  52  -1280.1940040  0.761393E-05  0.904E-03    0.00       1.0  T
  53  -1280.1940269 -0.229063E-04  0.726E-03    0.00       1.0  T
  54  -1280.1940563 -0.294033E-04  0.525E-03    0.00       1.0  T
  55  -1280.1940525  0.381364E-05  0.547E-03    0.00       1.0  T
  56  -1280.1940663 -0.138502E-04  0.404E-03    0.00       1.0  T
  57  -1280.1940729 -0.651903E-05  0.327E-03    0.00       1.2  T
  58  -1280.1940759 -0.309144E-05  0.260E-03    0.00       1.5  T
  59  -1280.1940774 -0.146081E-05  0.216E-03    0.00       1.8  T
  60  -1280.1940770  0.421932E-06  0.222E-03    0.00       1.8  T
  61  -1280.1940800 -0.298512E-05  0.143E-03    0.00       2.8  T
  62  -1280.1940803 -0.377023E-06  0.120E-03    0.00       3.3  T
  63  -1280.1940811 -0.711041E-06  0.837E-04    0.00       4.8  T
  64  -1280.1940813 -0.245654E-06  0.655E-04    0.00       6.1  T

   *** convergence criteria satisfied after 64 iterations ***

         #    Occupation            Energy/Eh            Energy/eV
      -------------------------------------------------------------
         1        2.0000           -0.7750514             -21.0902
       ...           ...                  ...                  ...
      1073        1.5612           -0.4328239             -11.7777
      1074        1.4561           -0.4325536             -11.7704
      1075        1.4170           -0.4324616             -11.7679
      1076        1.4110           -0.4324479             -11.7675
      1077        1.3906           -0.4324015             -11.7662
      1078        1.3711           -0.4323582             -11.7651
      1079        1.3408           -0.4322922             -11.7633 (HOMO)
      1080        1.3366           -0.4322831             -11.7630 (LUMO)
      1081        1.3005           -0.4322066             -11.7609
      1082        1.2915           -0.4321879             -11.7604
      1083        1.1682           -0.4319399             -11.7537
      1084        1.0788           -0.4317669             -11.7490
       ...           ...                  ...                  ...
      1925                          1.3907676              37.8447
      -------------------------------------------------------------
                  HL-Gap            0.0000091 Eh            0.0002 eV
             Fermi-level           -0.4316167 Eh          -11.7449 eV

 SCC (total)                   0 d,  0 h,  0 min, 31.257 sec
 SCC setup                      ...        0 min,  0.052 sec (  0.166%)
 Dispersion                     ...        0 min,  0.200 sec (  0.641%)
 classical contributions        ...        0 min,  0.002 sec (  0.007%)
 integral evaluation            ...        0 min,  0.429 sec (  1.372%)
 iterations                     ...        0 min, 29.420 sec ( 94.124%)
 molecular gradient             ...        0 min,  1.088 sec (  3.480%)
 printout                       ...        0 min,  0.065 sec (  0.209%)

         :::::::::::::::::::::::::::::::::::::::::::::::::::::
         ::                     SUMMARY                     ::
         :::::::::::::::::::::::::::::::::::::::::::::::::::::
         :: total energy           -1267.742967807467 Eh    ::
         :: total w/o Gsasa/hb     -1267.671485828572 Eh    ::
         :: gradient norm              0.810006224607 Eh/a0 ::
         :: HOMO-LUMO gap              0.000246372878 eV    ::
         ::.................................................::
         :: SCC energy             -1280.194081306367 Eh    ::
         :: -> isotropic ES            6.118579377029 Eh    ::
         :: -> anisotropic ES         -0.755333074177 Eh    ::
         :: -> anisotropic XC          0.225723562045 Eh    ::
         :: -> dispersion             -1.069554271192 Eh    ::
         :: -> Gsolv                  -2.166316137458 Eh    ::
         ::    -> Gelec               -2.094834158562 Eh    ::
         ::    -> Gsasa                0.074090487901 Eh    ::
         ::    -> Ghb                 -0.146653226494 Eh    ::
         ::    -> Gshift               0.001080759698 Eh    ::
         :: repulsion energy          12.368441172098 Eh    ::
         :: add. restraining           0.000000000000 Eh    ::
         :: total charge               0.000000000003 e     ::
         :::::::::::::::::::::::::::::::::::::::::::::::::::::

           -------------------------------------------------
          |                Property Printout                |
           -------------------------------------------------

    * Orbital Energies and Occupations

         #    Occupation            Energy/Eh            Energy/eV
      -------------------------------------------------------------
         1        2.0000           -0.7750514             -21.0902
       ...           ...                  ...                  ...
      1067        1.6994           -0.4332642             -11.7897
      1068        1.6974           -0.4332568             -11.7895
      1069        1.6907           -0.4332322             -11.7888
      1070        1.6717           -0.4331648             -11.7870
      1071        1.6158           -0.4329830             -11.7821
      1072        1.5924           -0.4329129             -11.7802
      1073        1.5612           -0.4328239             -11.7777
      1074        1.4561           -0.4325536             -11.7704
      1075        1.4170           -0.4324616             -11.7679
      1076        1.4110           -0.4324479             -11.7675
      1077        1.3906           -0.4324015             -11.7662
      1078        1.3711           -0.4323582             -11.7651
      1079        1.3408           -0.4322922             -11.7633 (HOMO)
      1080        1.3366           -0.4322831             -11.7630 (LUMO)
      1081        1.3005           -0.4322066             -11.7609
      1082        1.2915           -0.4321879             -11.7604
      1083        1.1682           -0.4319399             -11.7537
      1084        1.0788           -0.4317669             -11.7490
      1085        1.0461           -0.4317045             -11.7473
      1086        0.9927           -0.4316029             -11.7445
      1087        0.8778           -0.4313830             -11.7385
      1088        0.8009           -0.4312326             -11.7344
      1089                         -0.3118865              -8.4869
      1090                         -0.3090621              -8.4100
       ...                                ...                  ...
      1925                          1.3907676              37.8447
      -------------------------------------------------------------
                  HL-Gap            0.0000091 Eh            0.0002 eV
             Fermi-level           -0.4316167 Eh          -11.7449 eV

 * generalized Born model for continuum solvation

     #   Z     Born rad/Å   SASA/Å²    H-bond
     1   8 O        1.989    17.769    -0.002
     2   6 C        2.321     0.777    -0.000
     3   6 C        2.510     0.095    -0.000
     4   8 O        2.295    11.632    -0.001
     5   6 C        2.604     0.014    -0.000
     6   8 O        2.433     0.112    -0.000
     7   6 C        2.543     1.111    -0.000
     8   6 C        2.615     1.087    -0.000
     9   7 N        2.715     0.881    -0.000
    10   6 C        2.617     5.606    -0.001
    11   7 N        2.393    17.018    -0.001
    12   6 C        2.932     3.560    -0.000
    13   6 C        2.728     4.152    -0.000
    14   7 N        2.240     3.749    -0.000
    15   7 N        2.521     2.295    -0.000
    16   6 C        2.602     6.090    -0.001
    17   7 N        2.398    11.049    -0.001
    18   6 C        2.968     3.301    -0.000
    19   1 H        1.843    15.012    -0.025
    20   1 H        1.845    10.826    -0.018
    21   1 H        1.907    15.921    -0.027
    22   1 H        1.944    12.248    -0.021
    23   1 H        2.011     2.143    -0.004
    24   1 H        1.911    18.942    -0.032
    25   1 H        1.922    17.635    -0.030
    26   1 H        1.956     7.128    -0.012
    27   1 H        1.970     1.159    -0.002
    28   1 H        1.873    21.984    -0.037
    29   1 H        1.960    11.095    -0.019
    30   1 H        1.699    26.013    -0.044
    31  15 P        2.771     9.980    -0.002
    32   8 O        2.073    26.818    -0.003
    33   8 O        2.091    24.432    -0.003
    34   8 O        2.295     6.621    -0.001
    35   6 C        2.505     0.068    -0.000
    36   6 C        2.617     0.013    -0.000
    37   8 O        2.558     0.032    -0.000
    38   6 C        2.683     0.005    -0.000
    39   8 O        2.478     0.051    -0.000
    40   6 C        2.580     1.302    -0.000
    41   6 C        2.759     0.029    -0.000
    42   7 N        2.882     0.000     0.000
    43   6 C        2.689     1.007    -0.000
    44   7 N        2.453    12.021    -0.001
    45   6 C        3.041     0.364    -0.000
    46   6 C        2.715     0.338    -0.000
    47   8 O        2.188    12.863    -0.001
    48   7 N        2.639     0.000    -0.000
    49   6 C        2.784     0.042    -0.000
    50   7 N        2.281     0.543    -0.000
    51   7 N        2.589     3.402    -0.000
    52   6 C        3.151     0.000     0.000
    53   1 H        1.951     4.712    -0.008
    54   1 H        2.036     0.362    -0.001
    55   1 H        1.987    10.861    -0.018
    56   1 H        1.999    10.953    -0.018
    57   1 H        2.019     3.358    -0.006
    58   1 H        1.933    18.000    -0.030
    59   1 H        2.003     8.522    -0.014
    60   1 H        1.994     7.646    -0.013
    61   1 H        2.333     0.006    -0.000
    62   1 H        2.037     0.134    -0.000
    63   1 H        1.892    20.379    -0.034
    64  15 P        2.797     6.912    -0.001
    65   8 O        2.087    26.086    -0.003
    66   8 O        2.082    27.366    -0.003
    67   8 O        2.320     4.363    -0.000
    68   6 C        2.489     0.378    -0.000
    69   6 C        2.627     0.000     0.000
    70   8 O        2.487     0.092    -0.000
    71   6 C        2.662     0.007    -0.000
    72   8 O        2.425     0.477    -0.000
    73   6 C        2.585     1.088    -0.000
    74   6 C        2.752     0.002    -0.000
    75   7 N        2.729     0.000    -0.000
    76   6 C        2.739     0.000    -0.000
    77   8 O        2.231     4.950    -0.001
    78   7 N        2.605     0.001    -0.000
    79   6 C        2.725     0.336    -0.000
    80   7 N        2.268     2.323    -0.000
    81   6 C        2.634     3.243    -0.000
    82   6 C        2.691     0.335    -0.000
    83   1 H        1.909    11.082    -0.019
    84   1 H        1.990     3.133    -0.005
    85   1 H        2.030     5.844    -0.010
    86   1 H        1.982    10.620    -0.018
    87   1 H        2.015     2.912    -0.005
    88   1 H        1.931    17.413    -0.029
    89   1 H        2.034     4.585    -0.008
    90   1 H        1.983     2.644    -0.004
    91   1 H        1.889    21.301    -0.036
    92   1 H        1.941    20.136    -0.034
    93   1 H        2.011     8.201    -0.014
    94  15 P        2.788     9.382    -0.002
    95   8 O        2.080    26.669    -0.003
    96   8 O        2.083    26.778    -0.003
    97   8 O        2.309     5.979    -0.001
    98   6 C        2.509     0.099    -0.000
    99   6 C        2.613     0.003    -0.000
   100   8 O        2.504     0.182    -0.000
   101   6 C        2.658     0.013    -0.000
   102   8 O        2.423     0.409    -0.000
   103   6 C        2.576     1.197    -0.000
   104   6 C        2.767     0.030    -0.000
   105   7 N        2.908     0.000     0.000
   106   6 C        2.758     1.042    -0.000
   107   7 N        2.498     9.521    -0.001
   108   6 C        3.154     0.111    -0.000
   109   6 C        2.891     0.008    -0.000
   110   7 N        2.302     0.677    -0.000
   111   7 N        2.633     0.000     0.000
   112   6 C        2.695     0.566    -0.000
   113   7 N        2.495     8.148    -0.001
   114   6 C        3.194     0.000     0.000
   115   1 H        1.931     7.940    -0.013
   116   1 H        2.085     0.007    -0.000
   117   1 H        1.994     9.742    -0.016
   118   1 H        1.990    10.617    -0.018
   119   1 H        2.009     6.279    -0.011
   120   1 H        1.938    17.464    -0.029
   121   1 H        2.062     4.078    -0.007
   122   1 H        2.054     4.448    -0.007
   123   1 H        1.980     3.343    -0.006
   124   1 H        1.917    18.790    -0.032
   125   1 H        2.004     7.462    -0.013
   126  15 P        2.794     8.713    -0.002
   127   8 O        2.087    26.030    -0.003
   128   8 O        2.087    25.792    -0.003
   129   8 O        2.334     4.118    -0.000
   130   6 C        2.531     0.066    -0.000
   131   6 C        2.620     0.020    -0.000
   132   8 O        2.549     0.207    -0.000
   133   6 C        2.656     0.004    -0.000
   134   8 O        2.453     0.721    -0.000
   135   6 C        2.627     0.043    -0.000
   136   6 C        2.738     0.012    -0.000
   137   7 N        2.864     0.000    -0.000
   138   6 C        2.741     0.687    -0.000
   139   7 N        2.505     6.660    -0.000
   140   6 C        3.141     0.000     0.000
   141   6 C        2.912     0.000     0.000
   142   7 N        2.307     0.108    -0.000
   143   7 N        2.624     0.000    -0.000
   144   6 C        2.651     0.428    -0.000
   145   7 N        2.476     7.621    -0.001
   146   6 C        3.170     0.000    -0.000
   147   1 H        1.972     6.243    -0.010
   148   1 H        2.068     0.009    -0.000
   149   1 H        2.006    12.415    -0.021
   150   1 H        1.987    11.961    -0.020
   151   1 H        2.128     0.000    -0.000
   152   1 H        1.965    15.346    -0.026
   153   1 H        1.991    11.981    -0.020
   154   1 H        2.026     7.395    -0.012
   155   1 H        1.963     1.583    -0.003
   156   1 H        1.920     7.097    -0.012
   157   1 H        1.980     9.649    -0.016
   158  15 P        2.787     7.471    -0.001
   159   8 O        2.078    26.213    -0.003
   160   8 O        2.087    26.922    -0.003
   161   8 O        2.322     5.208    -0.001
   162   6 C        2.493     0.280    -0.000
   163   6 C        2.623     0.009    -0.000
   164   8 O        2.479     0.677    -0.000
   165   6 C        2.664     0.010    -0.000
   166   8 O        2.465     0.079    -0.000
   167   6 C        2.569     1.027    -0.000
   168   6 C        2.740     0.095    -0.000
   169   7 N        2.781     0.000     0.000
   170   6 C        2.696     0.026    -0.000
   171   8 O        2.165    12.393    -0.001
   172   7 N        2.492     0.000    -0.000
   173   6 C        2.647     0.034    -0.000
   174   8 O        2.171     9.869    -0.001
   175   6 C        2.765     0.000     0.000
   176   6 C        2.423     2.118    -0.000
   177   6 C        2.860     0.000    -0.000
   178   1 H        1.925     9.852    -0.017
   179   1 H        1.976     2.643    -0.004
   180   1 H        2.001    10.732    -0.018
   181   1 H        1.980    11.158    -0.019
   182   1 H        1.996     5.107    -0.009
   183   1 H        1.928    18.024    -0.030
   184   1 H        1.992    10.017    -0.017
   185   1 H        2.200     0.003    -0.000
   186   1 H        1.872    15.562    -0.026
   187   1 H        1.886    13.257    -0.022
   188   1 H        1.898    12.977    -0.022
   189   1 H        2.134     0.035    -0.000
   190  15 P        2.793     7.752    -0.002
   191   8 O        2.085    25.897    -0.003
   192   8 O        2.085    24.270    -0.003
   193   8 O        2.326     4.229    -0.000
   194   6 C        2.524     0.000    -0.000
   195   6 C        2.615     0.074    -0.000
   196   8 O        2.491     0.704    -0.000
   197   6 C        2.649     0.011    -0.000
   198   8 O        2.415     0.738    -0.000
   199   6 C        2.586     0.592    -0.000
   200   6 C        2.707     0.008    -0.000
   201   7 N        2.716     0.000     0.000
   202   6 C        2.729     0.030    -0.000
   203   8 O        2.206    11.538    -0.001
   204   7 N        2.619     0.001    -0.000
   205   6 C        2.803     0.000     0.000
   206   7 N        2.293     0.333    -0.000
   207   6 C        2.682     0.377    -0.000
   208   6 C        2.718     0.002    -0.000
   209   1 H        1.972     2.915    -0.005
   210   1 H        2.042     0.015    -0.000
   211   1 H        1.994    12.189    -0.020
   212   1 H        1.988    10.590    -0.018
   213   1 H        2.030     3.412    -0.006
   214   1 H        1.948    16.902    -0.028
   215   1 H        1.973    10.412    -0.017
   216   1 H        1.994     1.384    -0.002
   217   1 H        1.903    15.986    -0.027
   218   1 H        1.967    15.453    -0.026
   219   1 H        2.038     3.645    -0.006
   220  15 P        2.796     7.709    -0.002
   221   8 O        2.074    28.263    -0.003
   222   8 O        2.100    24.830    -0.003
   223   8 O        2.312     4.869    -0.001
   224   6 C        2.495     0.309    -0.000
   225   6 C        2.599     0.026    -0.000
   226   8 O        2.463     0.718    -0.000
   227   6 C        2.674     0.000    -0.000
   228   8 O        2.427     1.283    -0.000
   229   6 C        2.638     0.003    -0.000
   230   6 C        2.709     0.100    -0.000
   231   7 N        2.722     0.000    -0.000
   232   6 C        2.760     0.000    -0.000
   233   8 O        2.189     9.846    -0.001
   234   7 N        2.655     0.000     0.000
   235   6 C        2.804     0.000     0.000
   236   7 N        2.301     0.309    -0.000
   237   6 C        2.676     0.777    -0.000
   238   6 C        2.738     0.296    -0.000
   239   1 H        1.937     6.610    -0.011
   240   1 H        1.967     3.160    -0.005
   241   1 H        1.974    13.174    -0.022
   242   1 H        2.034     5.654    -0.009
   243   1 H        2.104     0.115    -0.000
   244   1 H        1.984     8.247    -0.014
   245   1 H        1.990    11.819    -0.020
   246   1 H        2.035     0.199    -0.000
   247   1 H        1.897    18.334    -0.031
   248   1 H        1.967    15.452    -0.026
   249   1 H        2.053     3.641    -0.006
   250  15 P        2.797     8.512    -0.002
   251   8 O        2.098    21.361    -0.002
   252   8 O        2.074    31.011    -0.003
   253   8 O        2.333     0.582    -0.000
   254   6 C        2.476     0.114    -0.000
   255   6 C        2.558     0.148    -0.000
   256   8 O        2.369     5.528    -0.001
   257   6 C        2.634     0.000    -0.000
   258   8 O        2.383     0.353    -0.000
   259   6 C        2.588     0.040    -0.000
   260   6 C        2.686     0.211    -0.000
   261   7 N        2.690     0.002    -0.000
   262   6 C        2.676     0.644    -0.000
   263   8 O        2.142    21.860    -0.002
   264   7 N        2.503     1.230    -0.000
   265   6 C        2.761     0.063    -0.000
   266   7 N        2.304     0.815    -0.000
   267   6 C        2.673     1.136    -0.000
   268   6 C        2.726     0.041    -0.000
   269   1 H        1.927     7.519    -0.013
   270   1 H        1.897    11.801    -0.020
   271   1 H        1.922    17.446    -0.029
   272   1 H        1.999     9.124    -0.015
   273   1 H        2.059     0.000    -0.000
   274   1 H        1.935    13.863    -0.023
   275   1 H        1.986    12.233    -0.021
   276   1 H        1.996     0.346    -0.001
   277   1 H        1.937    10.484    -0.018
   278   1 H        1.974    14.435    -0.024
   279   1 H        2.061     2.502    -0.004
   280  15 P        2.767     8.872    -0.002
   281   8 O        2.080    25.431    -0.003
   282   8 O        2.082    26.588    -0.003
   283   8 O        2.276     6.433    -0.001
   284   6 C        2.466     0.286    -0.000
   285   6 C        2.588     0.085    -0.000
   286   8 O        2.443     1.772    -0.000
   287   6 C        2.635     0.002    -0.000
   288   8 O        2.410     0.617    -0.000
   289   6 C        2.581     0.677    -0.000
   290   6 C        2.670     0.178    -0.000
   291   7 N        2.651     0.020    -0.000
   292   6 C        2.607     3.261    -0.000
   293   8 O        2.118    27.368    -0.003
   294   7 N        2.437     7.439    -0.001
   295   6 C        2.680     0.149    -0.000
   296   7 N        2.235     2.924    -0.000
   297   6 C        2.703     0.002    -0.000
   298   6 C        2.729     0.002    -0.000
   299   1 H        1.898    11.627    -0.020
   300   1 H        1.951     3.321    -0.006
   301   1 H        1.950    15.406    -0.026
   302   1 H        1.974    11.616    -0.020
   303   1 H        2.052     0.869    -0.001
   304   1 H        1.950    17.304    -0.029
   305   1 H        1.964    12.495    -0.021
   306   1 H        1.882    20.350    -0.034
   307   1 H        1.913     8.518    -0.014
   308   1 H        2.057     0.823    -0.001
   309   1 H        2.066     1.804    -0.003
   310  15 P        2.780     8.919    -0.002
   311   8 O        2.075    26.727    -0.003
   312   8 O        2.096    24.331    -0.003
   313   8 O        2.294     6.483    -0.001
   314   6 C        2.481     0.182    -0.000
   315   6 C        2.564     0.199    -0.000
   316   8 O        2.365     6.344    -0.001
   317   6 C        2.652     0.000    -0.000
   318   8 O        2.425     0.211    -0.000
   319   6 C        2.600     0.000    -0.000
   320   6 C        2.660     0.770    -0.000
   321   7 N        2.623     1.748    -0.000
   322   6 C        2.598     4.563    -0.000
   323   8 O        2.120    19.373    -0.002
   324   7 N        2.374    10.960    -0.001
   325   6 C        2.613     6.858    -0.001
   326   7 N        2.186     7.335    -0.001
   327   6 C        2.596     6.521    -0.001
   328   6 C        2.663     2.954    -0.000
   329   1 H        1.938     5.972    -0.010
   330   1 H        1.983     0.351    -0.001
   331   1 H        1.942    16.524    -0.028
   332   1 H        2.020     8.287    -0.014
   333   1 H        2.060     1.333    -0.002
   334   1 H        1.993     6.399    -0.011
   335   1 H        1.961    12.118    -0.020
   336   1 H        1.861    23.898    -0.040
   337   1 H        1.851    22.435    -0.038
   338   1 H        1.961     8.348    -0.014
   339   1 H        2.041     0.628    -0.001
   340  15 P        2.828     1.850    -0.000
   341   8 O        2.116    19.407    -0.002
   342   8 O        2.164     3.467    -0.000
   343   8 O        2.287     7.242    -0.001
   344   6 C        2.495     0.196    -0.000
   345   6 C        2.582     0.169    -0.000
   346   8 O        2.373     4.553    -0.001
   347   6 C        2.651     0.000     0.000
   348   8 O        2.445     0.506    -0.000
   349   6 C        2.545     0.631    -0.000
   350   6 C        2.634     0.846    -0.000
   351   7 N        2.583     0.642    -0.000
   352   6 C        2.558     7.095    -0.001
   353   8 O        2.092    27.313    -0.003
   354   7 N        2.348    15.137    -0.001
   355   6 C        2.573     7.376    -0.001
   356   7 N        2.170     7.365    -0.001
   357   6 C        2.586     5.517    -0.001
   358   6 C        2.631     1.388    -0.000
   359   1 H        1.947     0.410    -0.001
   360   1 H        1.991     3.554    -0.006
   361   1 H        1.978    14.643    -0.025
   362   1 H        2.019     6.960    -0.012
   363   1 H        1.978     9.587    -0.016
   364   1 H        1.930    17.288    -0.029
   365   1 H        1.930    14.882    -0.025
   366   1 H        1.839    25.187    -0.042
   367   1 H        1.856    19.723    -0.033
   368   1 H        1.963     5.217    -0.009
   369   1 H        2.020     1.997    -0.003
   370  15 P        2.787     8.830    -0.002
   371   8 O        2.078    27.374    -0.003
   372   8 O        2.115    18.757    -0.002
   373   8 O        2.261     9.643    -0.001
   374   6 C        2.462     0.279    -0.000
   375   6 C        2.566     0.184    -0.000
   376   8 O        2.413     5.012    -0.001
   377   6 C        2.623     0.015    -0.000
   378   8 O        2.422     0.310    -0.000
   379   6 C        2.585     0.996    -0.000
   380   6 C        2.707     0.259    -0.000
   381   7 N        2.826     0.005    -0.000
   382   6 C        2.669     1.042    -0.000
   383   7 N        2.439    13.239    -0.001
   384   6 C        2.946     0.395    -0.000
   385   6 C        2.698     0.663    -0.000
   386   8 O        2.182    15.549    -0.002
   387   7 N        2.653     0.000     0.000
   388   6 C        2.780     0.173    -0.000
   389   7 N        2.284     1.317    -0.000
   390   7 N        2.592     2.737    -0.000
   391   6 C        3.102     0.266    -0.000
   392   1 H        1.903    11.768    -0.020
   393   1 H        1.953     1.730    -0.003
   394   1 H        1.947    15.221    -0.026
   395   1 H        1.943    11.943    -0.020
   396   1 H        2.049     1.503    -0.003
   397   1 H        1.941    17.604    -0.030
   398   1 H        2.001    13.117    -0.022
   399   1 H        1.960     6.450    -0.011
   400   1 H        2.352     0.000     0.000
   401   1 H        2.009     0.774    -0.001
   402   1 H        1.901    22.872    -0.038
   403  15 P        2.776     9.072    -0.002
   404   8 O        2.073    26.552    -0.003
   405   8 O        2.077    27.557    -0.003
   406   8 O        2.307     5.830    -0.001
   407   6 C        2.488     0.294    -0.000
   408   6 C        2.620     0.001    -0.000
   409   8 O        2.535     0.078    -0.000
   410   6 C        2.638     0.011    -0.000
   411   8 O        2.414     0.362    -0.000
   412   6 C        2.591     1.039    -0.000
   413   6 C        2.769     0.023    -0.000
   414   7 N        2.934     0.000     0.000
   415   6 C        2.732     0.690    -0.000
   416   7 N        2.489    12.032    -0.001
   417   6 C        3.079     0.008    -0.000
   418   6 C        2.764     0.003    -0.000
   419   8 O        2.193     9.904    -0.001
   420   7 N        2.680     0.000    -0.000
   421   6 C        2.781     0.141    -0.000
   422   7 N        2.273     2.445    -0.000
   423   7 N        2.604     4.734    -0.000
   424   6 C        3.193     0.004    -0.000
   425   1 H        1.909    12.636    -0.021
   426   1 H        2.008     2.308    -0.004
   427   1 H        2.014     8.583    -0.014
   428   1 H        1.977    12.087    -0.020
   429   1 H        2.025     2.985    -0.005
   430   1 H        1.946    16.916    -0.028
   431   1 H        2.033     8.722    -0.015
   432   1 H        2.005     8.823    -0.015
   433   1 H        2.318     0.000    -0.000
   434   1 H        2.007     1.194    -0.002
   435   1 H        1.891    24.022    -0.040
   436  15 P        2.783     8.726    -0.002
   437   8 O        2.083    26.651    -0.003
   438   8 O        2.087    26.040    -0.003
   439   8 O        2.326     3.599    -0.000
   440   6 C        2.503     0.133    -0.000
   441   6 C        2.612     0.007    -0.000
   442   8 O        2.520     0.041    -0.000
   443   6 C        2.628     0.042    -0.000
   444   8 O        2.368     2.037    -0.000
   445   6 C        2.609     0.001    -0.000
   446   6 C        2.749     0.032    -0.000
   447   7 N        2.833     0.043    -0.000
   448   6 C        2.735     0.871    -0.000
   449   7 N        2.528     5.394    -0.000
   450   6 C        3.190     0.000     0.000
   451   6 C        2.928     0.000     0.000
   452   7 N        2.319     0.433    -0.000
   453   7 N        2.592     0.002    -0.000
   454   6 C        2.648     1.580    -0.000
   455   7 N        2.468    10.599    -0.001
   456   6 C        3.153     0.299    -0.000
   457   1 H        1.922    11.371    -0.019
   458   1 H        2.040     0.199    -0.000
   459   1 H        1.979     9.581    -0.016
   460   1 H        1.996    11.284    -0.019
   461   1 H        2.020     4.302    -0.007
   462   1 H        1.996     4.128    -0.007
   463   1 H        2.023    12.584    -0.021
   464   1 H        1.999     9.983    -0.017
   465   1 H        1.983     1.233    -0.002
   466   1 H        1.931    11.260    -0.019
   467   1 H        1.972    13.050    -0.022
   468  15 P        2.761    10.023    -0.002
   469   8 O        2.073    28.134    -0.003
   470   8 O        2.082    26.245    -0.003
   471   8 O        2.308     4.399    -0.000
   472   6 C        2.470     0.278    -0.000
   473   6 C        2.567     0.129    -0.000
   474   8 O        2.417     3.891    -0.000
   475   6 C        2.632     0.007    -0.000
   476   8 O        2.422     0.416    -0.000
   477   6 C        2.568     0.645    -0.000
   478   6 C        2.680     0.607    -0.000
   479   7 N        2.685     0.278    -0.000
   480   6 C        2.645     1.250    -0.000
   481   8 O        2.152    13.075    -0.001
   482   7 N        2.450     0.056    -0.000
   483   6 C        2.643     1.454    -0.000
   484   8 O        2.189     6.546    -0.001
   485   6 C        2.731     0.643    -0.000
   486   6 C        2.450     2.323    -0.000
   487   6 C        2.741     0.217    -0.000
   488   1 H        1.923     9.000    -0.015
   489   1 H        1.944     4.372    -0.007
   490   1 H        1.940    15.710    -0.026
   491   1 H        1.954    12.096    -0.020
   492   1 H        2.025     2.314    -0.004
   493   1 H        1.941    17.421    -0.029
   494   1 H        1.968    15.625    -0.026
   495   1 H        2.177     0.002    -0.000
   496   1 H        1.869    22.502    -0.038
   497   1 H        1.962     4.307    -0.007
   498   1 H        1.926     7.614    -0.013
   499   1 H        2.044     0.976    -0.002
   500  15 P        2.785     7.874    -0.002
   501   8 O        2.079    25.822    -0.003
   502   8 O        2.090    26.413    -0.003
   503   8 O        2.303     5.817    -0.001
   504   6 C        2.501     0.127    -0.000
   505   6 C        2.607     0.013    -0.000
   506   8 O        2.425     0.729    -0.000
   507   6 C        2.666     0.001    -0.000
   508   8 O        2.421     0.296    -0.000
   509   6 C        2.581     0.957    -0.000
   510   6 C        2.700     0.041    -0.000
   511   7 N        2.726     0.000     0.000
   512   6 C        2.714     0.001    -0.000
   513   8 O        2.188    10.269    -0.001
   514   7 N        2.543     0.000     0.000
   515   6 C        2.678     0.016    -0.000
   516   8 O        2.193     8.680    -0.001
   517   6 C        2.753     0.000    -0.000
   518   6 C        2.416     2.069    -0.000
   519   6 C        2.776     0.000    -0.000
   520   1 H        1.952     6.413    -0.011
   521   1 H        1.983     1.844    -0.003
   522   1 H        1.987    11.260    -0.019
   523   1 H        1.995    10.045    -0.017
   524   1 H        2.013     2.220    -0.004
   525   1 H        1.927    17.260    -0.029
   526   1 H        1.964    12.554    -0.021
   527   1 H        2.306     0.000    -0.000
   528   1 H        1.874    15.490    -0.026
   529   1 H        1.879    12.890    -0.022
   530   1 H        1.887    13.606    -0.023
   531   1 H        2.043     1.498    -0.003
   532  15 P        2.786     8.093    -0.002
   533   8 O        2.077    27.114    -0.003
   534   8 O        2.081    25.795    -0.003
   535   8 O        2.331     4.103    -0.000
   536   6 C        2.511     0.058    -0.000
   537   6 C        2.631     0.001    -0.000
   538   8 O        2.477     0.247    -0.000
   539   6 C        2.670     0.014    -0.000
   540   8 O        2.505     0.027    -0.000
   541   6 C        2.586     1.307    -0.000
   542   6 C        2.764     0.101    -0.000
   543   7 N        2.887     0.000     0.000
   544   6 C        2.741     0.400    -0.000
   545   7 N        2.480    12.417    -0.001
   546   6 C        3.070     0.047    -0.000
   547   6 C        2.759     0.019    -0.000
   548   8 O        2.227     8.791    -0.001
   549   7 N        2.679     0.000     0.000
   550   6 C        2.792     0.048    -0.000
   551   7 N        2.286     0.804    -0.000
   552   7 N        2.613     4.317    -0.000
   553   6 C        3.202     0.000     0.000
   554   1 H        1.922     7.130    -0.012
   555   1 H        2.020    -0.000     0.000
   556   1 H        2.006     9.169    -0.015
   557   1 H        2.000    11.093    -0.019
   558   1 H        2.020     3.869    -0.006
   559   1 H        1.933    18.379    -0.031
   560   1 H        2.008     9.585    -0.016
   561   1 H        2.015     4.452    -0.007
   562   1 H        2.324     0.000     0.000
   563   1 H        1.979     2.805    -0.005
   564   1 H        1.900    21.169    -0.036
   565  15 P        2.797     8.020    -0.002
   566   8 O        2.081    26.695    -0.003
   567   8 O        2.098    24.429    -0.003
   568   8 O        2.304     6.430    -0.001
   569   6 C        2.501     0.205    -0.000
   570   6 C        2.641     0.000    -0.000
   571   8 O        2.557     0.046    -0.000
   572   6 C        2.673     0.024    -0.000
   573   8 O        2.458     0.338    -0.000
   574   6 C        2.623     0.549    -0.000
   575   6 C        2.799     0.004    -0.000
   576   7 N        2.808     0.000     0.000
   577   6 C        2.752     0.000     0.000
   578   8 O        2.228     8.845    -0.001
   579   7 N        2.614     0.000     0.000
   580   6 C        2.735     0.066    -0.000
   581   7 N        2.286     1.332    -0.000
   582   6 C        2.668     0.779    -0.000
   583   6 C        2.732     0.038    -0.000
   584   1 H        1.937     9.191    -0.015
   585   1 H        2.038     0.847    -0.001
   586   1 H        2.029     8.541    -0.014
   587   1 H        1.986    11.544    -0.019
   588   1 H        2.041     3.513    -0.006
   589   1 H        1.959    16.186    -0.027
   590   1 H        2.062     5.626    -0.009
   591   1 H        2.048     0.147    -0.000
   592   1 H        1.899    12.977    -0.022
   593   1 H        1.970    18.388    -0.031
   594   1 H        2.022     6.957    -0.012
   595  15 P        2.795     8.133    -0.002
   596   8 O        2.081    26.870    -0.003
   597   8 O        2.083    25.825    -0.003
   598   8 O        2.318     4.580    -0.001
   599   6 C        2.515     0.000    -0.000
   600   6 C        2.587     0.014    -0.000
   601   8 O        2.446     0.314    -0.000
   602   6 C        2.510     0.363    -0.000
   603   8 O        2.102    10.068    -0.001
   604   6 C        2.516     1.131    -0.000
   605   6 C        2.697     0.019    -0.000
   606   7 N        2.683     0.014    -0.000
   607   6 C        2.686     1.754    -0.000
   608   8 O        2.184     9.181    -0.001
   609   7 N        2.469     1.922    -0.000
   610   6 C        2.608     3.609    -0.000
   611   8 O        2.127    18.295    -0.002
   612   6 C        2.683     1.863    -0.000
   613   6 C        2.381     2.771    -0.000
   614   6 C        2.739     1.598    -0.000
   615   1 H        1.938     3.108    -0.005
   616   1 H        2.083     0.000     0.000
   617   1 H        1.972    12.764    -0.021
   618   1 H        1.907    17.288    -0.029
   619   1 H        1.771    15.011    -0.025
   620   1 H        1.942    15.701    -0.026
   621   1 H        1.917    18.106    -0.030
   622   1 H        1.988     7.867    -0.013
   623   1 H        2.218     1.029    -0.002
   624   1 H        1.844    20.988    -0.035
   625   1 H        1.863    13.345    -0.022
   626   1 H        1.871    12.591    -0.021
   627   1 H        2.057     0.627    -0.001

 total SASA / Å² :     3985.718

     #   Z          covCN         q      C6AA      α(0)
     1   8 O        1.652    -0.486    22.598     6.417
     2   6 C        3.669     0.072    19.618     6.350
     3   6 C        3.752     0.087    19.201     6.249
     4   8 O        1.696    -0.289    18.803     5.854
     5   6 C        3.988     0.122    18.531     6.116
     6   8 O        1.661    -0.300    19.000     5.884
     7   6 C        3.804    -0.092    22.246     6.715
     8   6 C        3.689     0.155    18.258     6.116
     9   7 N        2.785    -0.047    22.153     6.990
    10   6 C        3.100     0.122    25.212     8.228
    11   7 N        1.862    -0.209    26.373     7.612
    12   6 C        3.158     0.048    26.615     8.435
    13   6 C        2.904     0.187    24.012     8.035
    14   7 N        2.687    -0.185    25.005     7.427
    15   7 N        1.889    -0.201    26.190     7.587
    16   6 C        2.938     0.133    25.097     8.216
    17   7 N        1.823    -0.199    26.150     7.577
    18   6 C        3.083     0.140    24.876     8.176
    19   1 H        0.925     0.057     2.232     2.336
    20   1 H        0.925     0.071     2.070     2.250
    21   1 H        0.924     0.094     1.840     2.121
    22   1 H        0.924     0.052     2.292     2.367
    23   1 H        0.925     0.082     1.956     2.187
    24   1 H        0.924     0.101     1.774     2.083
    25   1 H        0.925     0.136     1.491     1.909
    26   1 H        0.926     0.095     1.831     2.116
    27   1 H        0.860     0.293     0.735     1.343
    28   1 H        0.860     0.280     0.775     1.379
    29   1 H        0.926     0.145     1.429     1.869
    30   1 H        0.805     0.388     0.506     1.118
    31  15 P        3.695     0.509   139.568    21.222
    32   8 O        0.808    -0.548    24.911     6.690
    33   8 O        0.808    -0.573    25.496     6.769
    34   8 O        1.657    -0.375    20.378     6.094
    35   6 C        3.883     0.105    18.810     6.166
    36   6 C        3.857     0.094    19.000     6.199
    37   8 O        1.711    -0.288    18.782     5.851
    38   6 C        4.147     0.133    18.354     6.085
    39   8 O        1.663    -0.289    18.813     5.855
    40   6 C        3.837    -0.106    22.492     6.747
    41   6 C        3.792     0.163    17.983     6.039
    42   7 N        2.864    -0.055    22.307     7.015
    43   6 C        3.059     0.135    24.995     8.199
    44   7 N        1.873    -0.213    26.479     7.628
    45   6 C        3.212     0.018    26.966     8.452
    46   6 C        2.782     0.283    22.214     7.720
    47   8 O        0.861    -0.409    21.865     6.269
    48   7 N        2.725    -0.148    24.197     7.306
    49   6 C        2.922     0.243    22.944     7.855
    50   7 N        2.667    -0.180    24.907     7.412
    51   7 N        1.855    -0.209    26.388     7.614
    52   6 C        3.109     0.144    24.727     8.147
    53   1 H        0.925     0.043     2.407     2.426
    54   1 H        0.925     0.051     2.308     2.376
    55   1 H        0.924     0.075     2.034     2.230
    56   1 H        0.925     0.035     2.512     2.479
    57   1 H        0.925     0.093     1.854     2.129
    58   1 H        0.924     0.114     1.661     2.015
    59   1 H        0.925     0.136     1.492     1.910
    60   1 H        0.926     0.086     1.921     2.168
    61   1 H        0.860     0.294     0.731     1.339
    62   1 H        0.860     0.304     0.701     1.312
    63   1 H        0.860     0.317     0.663     1.276
    64  15 P        3.829     0.545   138.246    21.121
    65   8 O        0.808    -0.577    25.593     6.781
    66   8 O        0.808    -0.558    25.131     6.720
    67   8 O        1.655    -0.330    19.551     5.969
    68   6 C        3.903     0.089    19.053     6.205
    69   6 C        3.839     0.098    18.943     6.192
    70   8 O        1.696    -0.308    19.131     5.905
    71   6 C        4.138     0.115    18.624     6.129
    72   8 O        1.658    -0.283    18.709     5.839
    73   6 C        3.832    -0.101    22.397     6.733
    74   6 C        3.740     0.154    18.176     6.083
    75   7 N        2.740    -0.044    22.092     6.981
    76   6 C        2.758     0.326    21.456     7.585
    77   8 O        0.864    -0.466    23.044     6.436
    78   7 N        1.892    -0.276    28.024     7.848
    79   6 C        2.889     0.202    23.709     7.983
    80   7 N        2.692    -0.192    25.157     7.449
    81   6 C        2.916    -0.072    29.786     8.950
    82   6 C        2.862     0.054    26.780     8.482
    83   1 H        0.925     0.046     2.375     2.410
    84   1 H        0.924     0.072     2.060     2.244
    85   1 H        0.924     0.075     2.037     2.232
    86   1 H        0.925     0.057     2.240     2.341
    87   1 H        0.925     0.093     1.854     2.130
    88   1 H        0.924     0.120     1.610     1.985
    89   1 H        0.925     0.145     1.423     1.865
    90   1 H        0.860     0.294     0.732     1.340
    91   1 H        0.860     0.281     0.771     1.376
    92   1 H        0.926     0.121     1.606     1.982
    93   1 H        0.926     0.095     1.829     2.115
    94  15 P        3.846     0.540   138.402    21.133
    95   8 O        0.808    -0.596    26.055     6.842
    96   8 O        0.808    -0.584    25.752     6.802
    97   8 O        1.657    -0.345    19.811     6.009
    98   6 C        3.881     0.094    18.983     6.195
    99   6 C        3.771     0.087    19.167     6.239
   100   8 O        1.699    -0.293    18.868     5.865
   101   6 C        4.005     0.120    18.552     6.119
   102   8 O        1.656    -0.332    19.583     5.974
   103   6 C        3.824    -0.097    22.327     6.724
   104   6 C        3.697     0.149    18.328     6.124
   105   7 N        2.861    -0.047    22.137     6.988
   106   6 C        3.133     0.112    25.323     8.238
   107   7 N        1.863    -0.205    26.285     7.599
   108   6 C        3.268     0.031    26.072     8.238
   109   6 C        2.910     0.175    24.237     8.073
   110   7 N        2.675    -0.175    24.782     7.393
   111   7 N        1.864    -0.228    26.831     7.678
   112   6 C        2.901     0.123    25.301     8.247
   113   7 N        1.824    -0.203    26.228     7.589
   114   6 C        3.053     0.124    25.231     8.238
   115   1 H        0.925     0.049     2.328     2.386
   116   1 H        0.926     0.072     2.068     2.249
   117   1 H        0.924     0.076     2.023     2.224
   118   1 H        0.925     0.037     2.493     2.469
   119   1 H        0.925     0.089     1.893     2.152
   120   1 H        0.924     0.111     1.687     2.031
   121   1 H        0.925     0.135     1.496     1.913
   122   1 H        0.926     0.099     1.796     2.096
   123   1 H        0.860     0.296     0.725     1.334
   124   1 H        0.860     0.292     0.736     1.344
   125   1 H        0.926     0.131     1.527     1.933
   126  15 P        3.780     0.522   139.077    21.184
   127   8 O        0.808    -0.554    25.047     6.709
   128   8 O        0.808    -0.568    25.383     6.754
   129   8 O        1.661    -0.323    19.415     5.948
   130   6 C        3.965     0.101    18.848     6.168
   131   6 C        3.841     0.103    18.866     6.179
   132   8 O        1.707    -0.310    19.169     5.911
   133   6 C        3.989     0.126    18.468     6.105
   134   8 O        1.661    -0.327    19.486     5.959
   135   6 C        3.862    -0.091    22.197     6.700
   136   6 C        3.732     0.161    18.091     6.071
   137   7 N        2.823    -0.003    21.326     6.859
   138   6 C        3.192     0.107    25.172     8.182
   139   7 N        1.885    -0.187    25.878     7.541
   140   6 C        3.190     0.033    26.787     8.442
   141   6 C        2.885     0.167    24.407     8.099
   142   7 N        2.658    -0.211    25.592     7.513
   143   7 N        1.868    -0.195    26.066     7.568
   144   6 C        2.885     0.128    25.201     8.230
   145   7 N        1.828    -0.166    25.384     7.466
   146   6 C        3.163     0.118    25.103     8.189
   147   1 H        0.925     0.046     2.377     2.411
   148   1 H        0.925     0.070     2.085     2.258
   149   1 H        0.924     0.070     2.081     2.256
   150   1 H        0.924     0.032     2.563     2.503
   151   1 H        0.926     0.094     1.842     2.123
   152   1 H        0.924     0.089     1.889     2.149
   153   1 H        0.925     0.117     1.636     2.000
   154   1 H        0.926     0.101     1.777     2.085
   155   1 H        0.860     0.294     0.733     1.341
   156   1 H        0.860     0.265     0.828     1.426
   157   1 H        0.926     0.137     1.482     1.904
   158  15 P        3.743     0.558   137.772    21.085
   159   8 O        0.808    -0.558    25.132     6.720
   160   8 O        0.808    -0.539    24.683     6.660
   161   8 O        1.660    -0.301    19.021     5.888
   162   6 C        3.947     0.093    18.987     6.192
   163   6 C        3.830     0.086    19.141     6.225
   164   8 O        1.702    -0.287    18.769     5.849
   165   6 C        3.998     0.110    18.717     6.146
   166   8 O        1.656    -0.299    19.000     5.884
   167   6 C        3.833    -0.097    22.328     6.723
   168   6 C        3.748     0.158    18.104     6.069
   169   7 N        2.739    -0.025    21.737     6.925
   170   6 C        2.697     0.320    21.561     7.600
   171   8 O        0.857    -0.394    21.552     6.224
   172   7 N        2.705    -0.125    23.719     7.233
   173   6 C        2.757     0.291    22.068     7.693
   174   8 O        0.861    -0.348    20.658     6.094
   175   6 C        2.961     0.025    27.455     8.594
   176   6 C        3.765    -0.159    23.618     6.927
   177   6 C        2.852     0.048    26.919     8.504
   178   1 H        0.925     0.060     2.194     2.316
   179   1 H        0.924     0.082     1.962     2.190
   180   1 H        0.924     0.083     1.953     2.186
   181   1 H        0.925     0.063     2.163     2.300
   182   1 H        0.925     0.103     1.762     2.076
   183   1 H        0.924     0.119     1.618     1.989
   184   1 H        0.925     0.148     1.405     1.854
   185   1 H        0.860     0.294     0.731     1.340
   186   1 H        0.925     0.151     1.386     1.841
   187   1 H        0.925     0.198     1.107     1.645
   188   1 H        0.924     0.105     1.737     2.061
   189   1 H        0.926     0.123     1.587     1.970
   190  15 P        3.703     0.546   138.208    21.118
   191   8 O        0.808    -0.567    25.346     6.749
   192   8 O        0.808    -0.564    25.283     6.740
   193   8 O        1.658    -0.346    19.828     6.011
   194   6 C        3.888     0.087    19.084     6.211
   195   6 C        3.939     0.096    18.940     6.184
   196   8 O        1.710    -0.262    18.349     5.784
   197   6 C        4.075     0.123    18.513     6.111
   198   8 O        1.660    -0.279    18.647     5.829
   199   6 C        3.935    -0.098    22.291     6.709
   200   6 C        3.738     0.151    18.232     6.093
   201   7 N        2.745    -0.021    21.663     6.913
   202   6 C        2.739     0.329    21.402     7.574
   203   8 O        0.865    -0.440    22.484     6.358
   204   7 N        1.842    -0.302    28.666     7.935
   205   6 C        2.864     0.188    23.984     8.028
   206   7 N        2.656    -0.187    25.067     7.436
   207   6 C        2.913    -0.068    29.700     8.937
   208   6 C        2.863     0.052    26.839     8.492
   209   1 H        0.924     0.066     2.136     2.285
   210   1 H        0.925     0.077     2.005     2.215
   211   1 H        0.924     0.083     1.946     2.181
   212   1 H        0.924     0.043     2.405     2.425
   213   1 H        0.925     0.091     1.871     2.139
   214   1 H        0.924     0.099     1.792     2.093
   215   1 H        0.925     0.137     1.480     1.902
   216   1 H        0.860     0.275     0.794     1.396
   217   1 H        0.860     0.281     0.773     1.377
   218   1 H        0.926     0.150     1.395     1.847
   219   1 H        0.926     0.122     1.595     1.975
   220  15 P        3.999     0.604   136.097    20.956
   221   8 O        0.808    -0.580    25.661     6.790
   222   8 O        0.808    -0.533    24.556     6.643
   223   8 O        1.659    -0.321    19.382     5.943
   224   6 C        4.100     0.090    19.020     6.194
   225   6 C        3.820     0.083    19.190     6.234
   226   8 O        1.705    -0.280    18.642     5.829
   227   6 C        4.115     0.130    18.394     6.091
   228   8 O        1.661    -0.275    18.575     5.818
   229   6 C        3.865    -0.090    22.173     6.696
   230   6 C        3.711     0.162    18.109     6.081
   231   7 N        2.737    -0.026    21.751     6.927
   232   6 C        2.741     0.301    21.898     7.662
   233   8 O        0.857    -0.425    22.188     6.315
   234   7 N        1.877    -0.296    28.520     7.916
   235   6 C        2.892     0.195    23.857     8.008
   236   7 N        2.694    -0.220    25.802     7.544
   237   6 C        2.914    -0.072    29.803     8.952
   238   6 C        2.877     0.047    26.933     8.508
   239   1 H        0.924     0.048     2.347     2.396
   240   1 H        0.924     0.084     1.935     2.175
   241   1 H        0.924     0.091     1.873     2.140
   242   1 H        0.925     0.037     2.490     2.468
   243   1 H        0.925     0.073     2.049     2.239
   244   1 H        0.924     0.094     1.842     2.122
   245   1 H        0.925     0.130     1.538     1.939
   246   1 H        0.860     0.264     0.831     1.428
   247   1 H        0.860     0.265     0.829     1.426
   248   1 H        0.926     0.135     1.498     1.914
   249   1 H        0.926     0.112     1.680     2.027
   250  15 P        3.873     0.588   136.661    21.000
   251   8 O        0.808    -0.588    25.843     6.814
   252   8 O        0.808    -0.543    24.776     6.672
   253   8 O        1.655    -0.326    19.466     5.956
   254   6 C        3.916     0.088    19.066     6.206
   255   6 C        3.742     0.085    19.245     6.259
   256   8 O        1.693    -0.296    18.929     5.874
   257   6 C        4.000     0.119    18.572     6.122
   258   8 O        1.656    -0.316    19.296     5.930
   259   6 C        3.803    -0.094    22.287     6.721
   260   6 C        3.705     0.160    18.162     6.093
   261   7 N        2.741    -0.028    21.786     6.932
   262   6 C        2.748     0.319    21.579     7.606
   263   8 O        0.862    -0.420    22.082     6.300
   264   7 N        1.862    -0.240    27.121     7.719
   265   6 C        2.865     0.186    24.031     8.035
   266   7 N        2.668    -0.197    25.280     7.467
   267   6 C        2.903    -0.077    29.911     8.967
   268   6 C        2.857     0.046    26.963     8.511
   269   1 H        0.925     0.063     2.169     2.303
   270   1 H        0.924     0.039     2.461     2.453
   271   1 H        0.924     0.100     1.782     2.088
   272   1 H        0.925     0.061     2.185     2.311
   273   1 H        0.925     0.081     1.965     2.192
   274   1 H        0.924     0.101     1.774     2.083
   275   1 H        0.925     0.128     1.547     1.945
   276   1 H        0.860     0.249     0.889     1.477
   277   1 H        0.860     0.255     0.865     1.457
   278   1 H        0.926     0.119     1.625     1.994
   279   1 H        0.926     0.101     1.779     2.086
   280  15 P        3.703     0.512   139.460    21.214
   281   8 O        0.808    -0.551    24.979     6.700
   282   8 O        0.808    -0.551    24.969     6.698
   283   8 O        1.648    -0.339    19.699     5.991
   284   6 C        3.853     0.083    19.165     6.226
   285   6 C        3.951     0.096    18.941     6.184
   286   8 O        1.706    -0.288    18.792     5.853
   287   6 C        4.089     0.117    18.601     6.126
   288   8 O        1.658    -0.306    19.109     5.901
   289   6 C        3.917    -0.092    22.186     6.694
   290   6 C        3.796     0.175    17.805     6.008
   291   7 N        2.738    -0.039    21.995     6.965
   292   6 C        2.766     0.340    21.221     7.544
   293   8 O        0.865    -0.456    22.823     6.405
   294   7 N        1.884    -0.243    27.193     7.730
   295   6 C        2.900     0.206    23.646     7.973
   296   7 N        2.699    -0.183    24.964     7.421
   297   6 C        2.925    -0.073    29.815     8.955
   298   6 C        2.884     0.048    26.928     8.507
   299   1 H        0.925     0.063     2.167     2.302
   300   1 H        0.924     0.071     2.071     2.250
   301   1 H        0.924     0.089     1.885     2.147
   302   1 H        0.924     0.068     2.111     2.272
   303   1 H        0.925     0.093     1.850     2.127
   304   1 H        0.924     0.102     1.766     2.078
   305   1 H        0.925     0.110     1.700     2.039
   306   1 H        0.860     0.302     0.708     1.318
   307   1 H        0.860     0.278     0.782     1.385
   308   1 H        0.926     0.129     1.542     1.942
   309   1 H        0.926     0.102     1.770     2.080
   310  15 P        3.874     0.591   136.568    20.992
   311   8 O        0.808    -0.555    25.066     6.711
   312   8 O        0.808    -0.551    24.963     6.697
   313   8 O        1.658    -0.316    19.286     5.928
   314   6 C        3.958     0.094    18.961     6.187
   315   6 C        3.760     0.089    19.143     6.237
   316   8 O        1.694    -0.310    19.178     5.913
   317   6 C        3.923     0.113    18.672     6.141
   318   8 O        1.648    -0.320    19.360     5.940
   319   6 C        3.830    -0.082    22.044     6.680
   320   6 C        3.699     0.162    18.130     6.090
   321   7 N        2.744    -0.034    21.897     6.950
   322   6 C        2.826     0.330    21.408     7.582
   323   8 O        0.865    -0.469    23.115     6.446
   324   7 N        1.935    -0.274    27.954     7.840
   325   6 C        2.969     0.206    23.643     7.976
   326   7 N        2.747    -0.207    25.488     7.498
   327   6 C        2.916    -0.068    29.702     8.937
   328   6 C        2.875     0.052    26.838     8.493
   329   1 H        0.925     0.074     2.043     2.235
   330   1 H        0.924     0.065     2.144     2.290
   331   1 H        0.924     0.083     1.950     2.184
   332   1 H        0.924     0.062     2.176     2.307
   333   1 H        0.925     0.091     1.872     2.140
   334   1 H        0.924     0.094     1.845     2.124
   335   1 H        0.925     0.113     1.673     2.023
   336   1 H        0.860     0.295     0.727     1.335
   337   1 H        0.860     0.288     0.749     1.355
   338   1 H        0.926     0.147     1.411     1.858
   339   1 H        0.926     0.112     1.682     2.028
   340  15 P        3.635     0.541   138.385    21.132
   341   8 O        0.808    -0.534    24.588     6.647
   342   8 O        0.808    -0.501    23.837     6.545
   343   8 O        1.653    -0.347    19.852     6.015
   344   6 C        3.872     0.085    19.134     6.220
   345   6 C        3.840     0.093    19.011     6.203
   346   8 O        1.703    -0.295    18.907     5.871
   347   6 C        4.025     0.142    18.224     6.064
   348   8 O        1.662    -0.311    19.205     5.916
   349   6 C        3.874    -0.082    22.007     6.670
   350   6 C        3.722     0.160    18.121     6.079
   351   7 N        2.734    -0.018    21.602     6.903
   352   6 C        2.757     0.336    21.300     7.558
   353   8 O        0.860    -0.471    23.161     6.452
   354   7 N        1.849    -0.252    27.406     7.759
   355   6 C        2.876     0.210    23.554     7.956
   356   7 N        2.683    -0.208    25.537     7.505
   357   6 C        2.936    -0.053    29.306     8.878
   358   6 C        2.867     0.059    26.670     8.465
   359   1 H        0.924     0.064     2.148     2.292
   360   1 H        0.925     0.074     2.044     2.236
   361   1 H        0.924     0.066     2.126     2.280
   362   1 H        0.924     0.031     2.576     2.510
   363   1 H        0.924     0.081     1.969     2.194
   364   1 H        0.924     0.091     1.865     2.136
   365   1 H        0.925     0.126     1.569     1.959
   366   1 H        0.860     0.291     0.741     1.349
   367   1 H        0.860     0.297     0.723     1.332
   368   1 H        0.926     0.146     1.419     1.863
   369   1 H        0.926     0.126     1.564     1.956
   370  15 P        3.855     0.554   137.895    21.094
   371   8 O        0.808    -0.534    24.583     6.646
   372   8 O        0.808    -0.577    25.592     6.781
   373   8 O        1.653    -0.297    18.966     5.879
   374   6 C        4.021     0.088    19.045     6.199
   375   6 C        3.808     0.088    19.111     6.223
   376   8 O        1.700    -0.299    18.969     5.880
   377   6 C        3.918     0.120    18.570     6.125
   378   8 O        1.660    -0.322    19.403     5.946
   379   6 C        3.838    -0.105    22.471     6.744
   380   6 C        3.739     0.154    18.183     6.084
   381   7 N        2.806     0.008    21.120     6.826
   382   6 C        3.119     0.129    25.029     8.194
   383   7 N        1.906    -0.200    26.156     7.583
   384   6 C        3.121     0.054    26.619     8.450
   385   6 C        2.765     0.285    22.178     7.712
   386   8 O        0.866    -0.382    21.318     6.191
   387   7 N        2.709    -0.151    24.265     7.316
   388   6 C        2.815     0.242    22.952     7.849
   389   7 N        2.681    -0.151    24.261     7.315
   390   7 N        1.873    -0.202    26.226     7.591
   391   6 C        3.146     0.149    24.528     8.103
   392   1 H        0.924     0.066     2.131     2.283
   393   1 H        0.925     0.045     2.385     2.415
   394   1 H        0.924     0.105     1.738     2.062
   395   1 H        0.925     0.059     2.207     2.323
   396   1 H        0.925     0.096     1.820     2.110
   397   1 H        0.924     0.123     1.593     1.974
   398   1 H        0.925     0.168     1.277     1.767
   399   1 H        0.926     0.096     1.823     2.112
   400   1 H        0.860     0.290     0.744     1.351
   401   1 H        0.860     0.305     0.699     1.310
   402   1 H        0.860     0.350     0.581     1.194
   403  15 P        3.656     0.517   139.264    21.199
   404   8 O        0.808    -0.567    25.359     6.750
   405   8 O        0.808    -0.545    24.827     6.679
   406   8 O        1.658    -0.299    18.999     5.884
   407   6 C        3.919     0.093    18.986     6.193
   408   6 C        3.865     0.096    18.959     6.192
   409   8 O        1.700    -0.314    19.236     5.921
   410   6 C        3.957     0.121    18.549     6.120
   411   8 O        1.658    -0.329    19.515     5.964
   412   6 C        3.896    -0.096    22.277     6.710
   413   6 C        3.700     0.139    18.473     6.147
   414   7 N        2.883    -0.026    21.742     6.925
   415   6 C        3.161     0.128    24.895     8.156
   416   7 N        1.905    -0.192    25.984     7.557
   417   6 C        3.267     0.038    25.912     8.213
   418   6 C        2.772     0.262    22.577     7.782
   419   8 O        0.856    -0.421    22.101     6.303
   420   7 N        2.725    -0.135    23.930     7.265
   421   6 C        2.868     0.249    22.840     7.834
   422   7 N        2.680    -0.181    24.917     7.414
   423   7 N        1.859    -0.196    26.081     7.569
   424   6 C        3.130     0.139    24.778     8.149
   425   1 H        0.925     0.046     2.373     2.409
   426   1 H        0.925     0.064     2.154     2.295
   427   1 H        0.924     0.083     1.946     2.181
   428   1 H        0.925     0.046     2.376     2.411
   429   1 H        0.925     0.086     1.921     2.167
   430   1 H        0.924     0.117     1.638     2.002
   431   1 H        0.925     0.163     1.308     1.788
   432   1 H        0.926     0.083     1.946     2.181
   433   1 H        0.860     0.280     0.775     1.379
   434   1 H        0.860     0.294     0.732     1.340
   435   1 H        0.860     0.330     0.630     1.243
   436  15 P        3.653     0.520   139.146    21.190
   437   8 O        0.808    -0.553    25.010     6.704
   438   8 O        0.808    -0.546    24.845     6.682
   439   8 O        1.660    -0.338    19.679     5.988
   440   6 C        3.878     0.104    18.837     6.171
   441   6 C        3.846     0.088    19.097     6.216
   442   8 O        1.706    -0.296    18.918     5.873
   443   6 C        3.916     0.122    18.533     6.119
   444   8 O        1.658    -0.328    19.503     5.962
   445   6 C        3.834    -0.087    22.125     6.692
   446   6 C        3.776     0.167    17.952     6.037
   447   7 N        2.868     0.000    21.258     6.848
   448   6 C        3.377     0.104    22.610     7.417
   449   7 N        1.858    -0.165    25.372     7.466
   450   6 C        3.417     0.041    22.946     7.347
   451   6 C        2.920     0.167    24.412     8.102
   452   7 N        2.683    -0.181    24.925     7.415
   453   7 N        1.880    -0.214    26.489     7.629
   454   6 C        2.909     0.124    25.270     8.243
   455   7 N        1.826    -0.181    25.734     7.517
   456   6 C        3.190     0.133    24.649     8.098
   457   1 H        0.925     0.054     2.272     2.357
   458   1 H        0.925     0.068     2.107     2.270
   459   1 H        0.924     0.084     1.942     2.180
   460   1 H        0.924     0.056     2.244     2.342
   461   1 H        0.924     0.078     1.998     2.210
   462   1 H        0.925     0.094     1.843     2.123
   463   1 H        0.924     0.102     1.764     2.077
   464   1 H        0.926     0.107     1.723     2.053
   465   1 H        0.860     0.303     0.705     1.315
   466   1 H        0.860     0.280     0.777     1.381
   467   1 H        0.926     0.131     1.530     1.934
   468  15 P        3.675     0.510   139.535    21.219
   469   8 O        0.808    -0.545    24.833     6.680
   470   8 O        0.808    -0.548    24.896     6.688
   471   8 O        1.662    -0.324    19.423     5.950
   472   6 C        3.943     0.103    18.822     6.165
   473   6 C        3.780     0.092    19.086     6.224
   474   8 O        1.700    -0.285    18.741     5.845
   475   6 C        3.957     0.105    18.788     6.159
   476   8 O        1.651    -0.297    18.965     5.879
   477   6 C        3.839    -0.086    22.108     6.689
   478   6 C        3.715     0.156    18.189     6.093
   479   7 N        2.743    -0.009    21.433     6.876
   480   6 C        2.702     0.319    21.572     7.602
   481   8 O        0.861    -0.433    22.352     6.339
   482   7 N        2.699    -0.142    24.082     7.288
   483   6 C        2.757     0.279    22.272     7.728
   484   8 O        0.860    -0.351    20.726     6.104
   485   6 C        2.946     0.013    27.724     8.636
   486   6 C        3.755    -0.153    23.514     6.914
   487   6 C        2.837     0.043    27.030     8.520
   488   1 H        0.924     0.035     2.511     2.478
   489   1 H        0.925     0.068     2.106     2.269
   490   1 H        0.924     0.083     1.945     2.181
   491   1 H        0.924     0.062     2.175     2.306
   492   1 H        0.925     0.097     1.816     2.107
   493   1 H        0.924     0.109     1.706     2.042
   494   1 H        0.925     0.157     1.345     1.814
   495   1 H        0.860     0.289     0.746     1.353
   496   1 H        0.925     0.155     1.356     1.821
   497   1 H        0.925     0.152     1.380     1.837
   498   1 H        0.924     0.082     1.958     2.188
   499   1 H        0.926     0.123     1.588     1.971
   500  15 P        3.781     0.539   138.442    21.136
   501   8 O        0.808    -0.572    25.468     6.765
   502   8 O        0.808    -0.542    24.773     6.672
   503   8 O        1.661    -0.337    19.672     5.987
   504   6 C        3.998     0.100    18.862     6.170
   505   6 C        3.895     0.086    19.104     6.213
   506   8 O        1.700    -0.274    18.540     5.813
   507   6 C        3.988     0.115    18.627     6.132
   508   8 O        1.660    -0.291    18.849     5.861
   509   6 C        3.873    -0.102    22.387     6.728
   510   6 C        3.754     0.151    18.212     6.085
   511   7 N        2.738    -0.007    21.400     6.871
   512   6 C        2.712     0.324    21.494     7.589
   513   8 O        0.861    -0.418    22.044     6.295
   514   7 N        2.718    -0.120    23.615     7.217
   515   6 C        2.767     0.282    22.229     7.721
   516   8 O        0.861    -0.414    21.959     6.283
   517   6 C        2.965     0.023    27.483     8.599
   518   6 C        3.765    -0.158    23.612     6.926
   519   6 C        2.850     0.042    27.044     8.523
   520   1 H        0.924     0.044     2.395     2.420
   521   1 H        0.924     0.065     2.145     2.290
   522   1 H        0.924     0.083     1.945     2.181
   523   1 H        0.925     0.047     2.363     2.404
   524   1 H        0.925     0.089     1.888     2.149
   525   1 H        0.924     0.108     1.714     2.047
   526   1 H        0.924     0.154     1.363     1.826
   527   1 H        0.861     0.280     0.776     1.380
   528   1 H        0.924     0.142     1.448     1.882
   529   1 H        0.924     0.197     1.112     1.649
   530   1 H        0.924     0.111     1.685     2.030
   531   1 H        0.926     0.155     1.358     1.822
   532  15 P        3.742     0.553   137.929    21.097
   533   8 O        0.808    -0.576    25.576     6.779
   534   8 O        0.808    -0.550    24.959     6.697
   535   8 O        1.661    -0.307    19.128     5.904
   536   6 C        3.928     0.088    19.066     6.205
   537   6 C        3.855     0.093    19.015     6.202
   538   8 O        1.699    -0.298    18.957     5.878
   539   6 C        4.032     0.123    18.515     6.112
   540   8 O        1.659    -0.307    19.137     5.906
   541   6 C        3.845    -0.098    22.339     6.723
   542   6 C        3.761     0.147    18.251     6.090
   543   7 N        2.817     0.004    21.198     6.838
   544   6 C        3.237     0.122    24.519     8.032
   545   7 N        1.868    -0.189    25.909     7.545
   546   6 C        3.232     0.036    26.376     8.337
   547   6 C        2.775     0.278    22.300     7.734
[...]
   356   7 N    3.426 --   355 C    1.406   366 H    0.893   367 H    0.891
                           354 N    0.130
   357   6 C    3.749 --   358 C    1.524   355 C    1.139   368 H    0.942
   358   6 C    3.902 --   357 C    1.524   351 N    1.291   369 H    0.938
   359   1 H    0.995 --   344 C    0.966
   360   1 H    0.994 --   344 C    0.960
   361   1 H    0.988 --   345 C    0.950
   362   1 H    0.994 --   347 C    0.949
   363   1 H    0.993 --   349 C    0.966
   364   1 H    0.989 --   349 C    0.964
   365   1 H    0.972 --   350 C    0.937
   366   1 H    0.912 --   356 N    0.893
   367   1 H    0.911 --   356 N    0.891
   368   1 H    0.973 --   357 C    0.942
   369   1 H    0.971 --   358 C    0.938
   370  15 P    5.668 --   371 O    1.681   372 O    1.661   373 O    1.170
                           348 O    1.104
   371   8 O    1.858 --   370 P    1.681
   372   8 O    1.847 --   370 P    1.661
   373   8 O    2.294 --   370 P    1.170   374 C    0.929
   374   6 C    3.924 --   375 C    0.985   392 H    0.967   393 H    0.967
                           373 O    0.929
   375   6 C    3.932 --   374 C    0.985   376 O    0.981   377 C    0.945
                           394 H    0.942
   376   8 O    2.066 --   375 C    0.981   380 C    0.959
   377   6 C    3.905 --   379 C    0.973   395 H    0.957   378 O    0.952
                           375 C    0.945
   378   8 O    2.280 --   403 P    1.113   377 C    0.952
   379   6 C    3.971 --   380 C    0.987   377 C    0.973   397 H    0.962
                           396 H    0.960
   380   6 C    3.893 --   379 C    0.987   376 O    0.959   381 N    0.956
                           398 H    0.923
   381   7 N    3.632 --   382 C    1.230   391 C    1.193   380 C    0.956
   382   6 C    3.792 --   383 N    1.468   381 N    1.230   399 H    0.959
   383   7 N    2.982 --   382 C    1.468   384 C    1.324
   384   6 C    3.783 --   383 N    1.324   391 C    1.224   385 C    1.043
   385   6 C    3.943 --   386 O    1.682   387 N    1.139   384 C    1.043
   386   8 O    2.009 --   385 C    1.682   387 N    0.141
   387   7 N    3.518 --   388 C    1.180   385 C    1.139   400 H    0.839
                           386 O    0.141
   388   6 C    3.954 --   389 N    1.456   390 N    1.259   387 N    1.180
   389   7 N    3.385 --   388 C    1.456   401 H    0.862   402 H    0.857
   390   7 N    2.821 --   391 C    1.320   388 C    1.259
   391   6 C    3.892 --   390 N    1.320   384 C    1.224   381 N    1.193
   392   1 H    0.993 --   374 C    0.967
   393   1 H    0.997 --   374 C    0.967
   394   1 H    0.976 --   375 C    0.942
   395   1 H    0.995 --   377 C    0.957
   396   1 H    0.990 --   379 C    0.960
   397   1 H    0.982 --   379 C    0.962
   398   1 H    0.966 --   380 C    0.923
   399   1 H    0.989 --   382 C    0.959
   400   1 H    0.915 --   387 N    0.839
   401   1 H    0.906 --   389 N    0.862
   402   1 H    0.876 --   389 N    0.857
   403  15 P    5.703 --   405 O    1.737   404 O    1.624   406 O    1.167
                           378 O    1.113
   404   8 O    1.805 --   403 P    1.624
   405   8 O    1.922 --   403 P    1.737
   406   8 O    2.303 --   403 P    1.167   407 C    0.933
   407   6 C    3.919 --   408 C    0.986   425 H    0.967   426 H    0.956
                           406 O    0.933
   408   6 C    3.955 --   407 C    0.986   409 O    0.972   410 C    0.970
                           427 H    0.946
   409   8 O    2.077 --   408 C    0.972   413 C    0.972
   410   6 C    3.920 --   412 C    0.984   408 C    0.970   428 H    0.956
                           411 O    0.933
   411   8 O    2.286 --   436 P    1.129   410 C    0.933
   412   6 C    3.976 --   410 C    0.984   413 C    0.977   429 H    0.964
                           430 H    0.962
   413   6 C    3.901 --   412 C    0.977   409 O    0.972   414 N    0.938
                           431 H    0.935
   414   7 N    3.604 --   415 C    1.239   424 C    1.155   413 C    0.938
   415   6 C    3.859 --   416 N    1.551   414 N    1.239   432 H    0.954
   416   7 N    2.978 --   415 C    1.551   417 C    1.230
   417   6 C    3.783 --   424 C    1.245   416 N    1.230   418 C    1.116
   418   6 C    3.951 --   419 O    1.576   420 N    1.167   417 C    1.116
   419   8 O    1.888 --   418 C    1.576   420 N    0.138
   420   7 N    3.528 --   418 C    1.167   421 C    1.166   433 H    0.845
                           419 O    0.138
   421   6 C    3.958 --   422 N    1.441   423 N    1.282   420 N    1.166
   422   7 N    3.382 --   421 C    1.441   435 H    0.870   434 H    0.854
   423   7 N    2.854 --   424 C    1.327   421 C    1.282
   424   6 C    3.899 --   423 N    1.327   417 C    1.245   414 N    1.155
   425   1 H    0.995 --   407 C    0.967
   426   1 H    0.993 --   407 C    0.956
   427   1 H    0.990 --   408 C    0.946
   428   1 H    0.997 --   410 C    0.956
   429   1 H    0.992 --   412 C    0.964
   430   1 H    0.984 --   412 C    0.962
   431   1 H    0.971 --   413 C    0.935
   432   1 H    0.991 --   415 C    0.954
   433   1 H    0.920 --   420 N    0.845
   434   1 H    0.913 --   422 N    0.854
   435   1 H    0.889 --   422 N    0.870
   436  15 P    5.741 --   437 O    1.725   438 O    1.714   411 O    1.129
                           439 O    1.113
   437   8 O    1.902 --   436 P    1.725
   438   8 O    1.894 --   436 P    1.714
   439   8 O    2.264 --   436 P    1.113   440 C    0.944
   440   6 C    3.914 --   441 C    0.988   457 H    0.964   458 H    0.951
                           439 O    0.944
   441   6 C    3.945 --   440 C    0.988   442 O    0.962   443 C    0.954
                           459 H    0.952
   442   8 O    2.073 --   446 C    0.985   441 C    0.962
   443   6 C    3.905 --   445 C    0.986   460 H    0.961   441 C    0.954
                           444 O    0.924
   444   8 O    2.271 --   468 P    1.140   443 C    0.924
   445   6 C    3.963 --   443 C    0.986   462 H    0.970   461 H    0.968
                           446 C    0.945
   446   6 C    3.924 --   447 N    0.992   442 O    0.985   445 C    0.945
                           463 H    0.937
   447   7 N    3.625 --   448 C    1.190   456 C    1.187   446 C    0.992
   448   6 C    3.909 --   449 N    1.602   447 N    1.190   464 H    0.952
   449   7 N    3.044 --   448 C    1.602   450 C    1.193
   450   6 C    3.896 --   451 C    1.239   456 C    1.238   449 N    1.193
   451   6 C    3.970 --   452 N    1.361   450 C    1.239   453 N    1.234
   452   7 N    3.382 --   451 C    1.361   466 H    0.903   465 H    0.854
   453   7 N    3.032 --   454 C    1.460   451 C    1.234
   454   6 C    3.926 --   453 N    1.460   455 N    1.405   467 H    0.940
   455   7 N    2.955 --   454 C    1.405   456 C    1.274
   456   6 C    3.922 --   455 N    1.274   450 C    1.238   447 N    1.187
   457   1 H    0.993 --   440 C    0.964
   458   1 H    0.991 --   440 C    0.951
   459   1 H    0.987 --   441 C    0.952
   460   1 H    0.995 --   443 C    0.961
   461   1 H    0.993 --   445 C    0.968
   462   1 H    0.991 --   445 C    0.970
   463   1 H    0.985 --   446 C    0.937
   464   1 H    0.987 --   448 C    0.952
   465   1 H    0.907 --   452 N    0.854
   466   1 H    0.921 --   452 N    0.903
   467   1 H    0.980 --   454 C    0.940
   468  15 P    5.769 --   470 O    1.756   469 O    1.706   444 O    1.140
                           471 O    1.110
   469   8 O    1.889 --   468 P    1.706
   470   8 O    1.942 --   468 P    1.756
   471   8 O    2.268 --   468 P    1.110   472 C    0.951
   472   6 C    3.926 --   473 C    0.991   488 H    0.962   489 H    0.955
                           471 O    0.951
   473   6 C    3.951 --   472 C    0.991   474 O    0.983   475 C    0.949
                           490 H    0.948
   474   8 O    2.088 --   473 C    0.983   478 C    0.970
   475   6 C    3.903 --   477 C    0.993   491 H    0.960   473 C    0.949
                           476 O    0.909
   476   8 O    2.315 --   500 P    1.192   475 C    0.909
   477   6 C    3.954 --   475 C    0.993   478 C    0.972   493 H    0.961
                           492 H    0.960
   478   6 C    3.902 --   479 N    0.974   477 C    0.972   474 O    0.970
                           494 H    0.911
   479   7 N    3.500 --   487 C    1.202   480 C    1.086   478 C    0.974
   480   6 C    3.950 --   481 O    1.612   482 N    1.184   479 N    1.086
   481   8 O    1.913 --   480 C    1.612   482 N    0.134
   482   7 N    3.533 --   480 C    1.184   483 C    1.134   495 H    0.844
                           484 O    0.145   481 O    0.134
   483   6 C    3.947 --   484 O    1.687   482 N    1.134   485 C    1.045
   484   8 O    2.014 --   483 C    1.687   482 N    0.145
   485   6 C    3.793 --   487 C    1.541   486 C    1.054   483 C    1.045
   486   6 C    3.906 --   485 C    1.054   498 H    0.976   497 H    0.927
                           496 H    0.894
   487   6 C    3.857 --   485 C    1.541   479 N    1.202   499 H    0.945
   488   1 H    0.994 --   472 C    0.962
   489   1 H    0.994 --   472 C    0.955
   490   1 H    0.986 --   473 C    0.948
   491   1 H    0.993 --   475 C    0.960
   492   1 H    0.990 --   477 C    0.960
   493   1 H    0.986 --   477 C    0.961
   494   1 H    0.949 --   478 C    0.911
   495   1 H    0.915 --   482 N    0.844
   496   1 H    0.928 --   486 C    0.894
   497   1 H    0.953 --   486 C    0.927
   498   1 H    0.990 --   486 C    0.976
   499   1 H    0.983 --   487 C    0.945
   500  15 P    5.704 --   502 O    1.708   501 O    1.650   476 O    1.192
                           503 O    1.093
   501   8 O    1.820 --   500 P    1.650
   502   8 O    1.888 --   500 P    1.708
   503   8 O    2.255 --   500 P    1.093   504 C    0.956
   504   6 C    3.925 --   505 C    0.984   520 H    0.962   503 O    0.956
                           521 H    0.954
   505   6 C    3.950 --   504 C    0.984   506 O    0.966   507 C    0.964
                           522 H    0.951
   506   8 O    2.100 --   510 C    0.998   505 C    0.966
   507   6 C    3.912 --   508 O    0.965   505 C    0.964   523 H    0.955
                           509 C    0.950
   508   8 O    2.320 --   532 P    1.122   507 C    0.965
   509   6 C    3.951 --   510 C    0.971   524 H    0.967   525 H    0.966
                           507 C    0.950
   510   6 C    3.899 --   506 O    0.998   509 C    0.971   511 N    0.931
                           526 H    0.923
   511   7 N    3.531 --   519 C    1.251   512 C    1.096   510 C    0.931
   512   6 C    3.952 --   513 O    1.634   514 N    1.148   511 N    1.096
   513   8 O    1.943 --   512 C    1.634   514 N    0.122
   514   7 N    3.566 --   515 C    1.224   512 C    1.148   527 H    0.834
                           516 O    0.142   513 O    0.122
   515   6 C    3.946 --   516 O    1.598   514 N    1.224   517 C    1.044
   516   8 O    1.926 --   515 C    1.598   514 N    0.142
   517   6 C    3.775 --   519 C    1.470   518 C    1.081   515 C    1.044
   518   6 C    3.879 --   517 C    1.081   530 H    0.970   528 H    0.903
                           529 H    0.868
   519   6 C    3.821 --   517 C    1.470   511 N    1.251   531 H    0.938
   520   1 H    0.994 --   504 C    0.962
   521   1 H    0.990 --   504 C    0.954
   522   1 H    0.989 --   505 C    0.951
   523   1 H    0.995 --   507 C    0.955
   524   1 H    0.992 --   509 C    0.967
   525   1 H    0.987 --   509 C    0.966
   526   1 H    0.959 --   510 C    0.923
   527   1 H    0.920 --   514 N    0.834
   528   1 H    0.939 --   518 C    0.903
   529   1 H    0.902 --   518 C    0.868
   530   1 H    0.985 --   518 C    0.970
   531   1 H    0.974 --   519 C    0.938
   532  15 P    5.675 --   534 O    1.662   533 O    1.638   535 O    1.193
                           508 O    1.122
   533   8 O    1.813 --   532 P    1.638
   534   8 O    1.839 --   532 P    1.662
   535   8 O    2.319 --   532 P    1.193   536 C    0.929
   536   6 C    3.911 --   537 C    0.978   554 H    0.967   555 H    0.959
                           535 O    0.929
   537   6 C    3.955 --   539 C    0.998   536 C    0.978   556 H    0.951
                           538 O    0.949
   538   8 O    2.092 --   542 C    1.009   537 C    0.949
   539   6 C    3.926 --   537 C    0.998   541 C    0.995   557 H    0.950
                           540 O    0.913
   540   8 O    2.306 --   565 P    1.168   539 C    0.913
   541   6 C    3.974 --   539 C    0.995   558 H    0.965   559 H    0.963
                           542 C    0.959
   542   6 C    3.913 --   538 O    1.009   541 C    0.959   560 H    0.939
                           543 N    0.929
   543   7 N    3.655 --   544 C    1.264   553 C    1.208   542 C    0.929
   544   6 C    3.806 --   545 N    1.468   543 N    1.264   561 H    0.947
   545   7 N    2.979 --   544 C    1.468   546 C    1.316
   546   6 C    3.795 --   545 N    1.316   553 C    1.193   547 C    1.084
   547   6 C    3.948 --   548 O    1.606   549 N    1.170   546 C    1.084
   548   8 O    1.938 --   547 C    1.606   549 N    0.133
   549   7 N    3.531 --   547 C    1.170   550 C    1.168   562 H    0.843
                           548 O    0.133
   550   6 C    3.955 --   551 N    1.413   552 N    1.313   549 N    1.168
   551   7 N    3.382 --   550 C    1.413   564 H    0.880   563 H    0.860
   552   7 N    2.857 --   550 C    1.313   553 C    1.299
   553   6 C    3.879 --   552 N    1.299   543 N    1.208   546 C    1.193
   554   1 H    0.995 --   536 C    0.967
   555   1 H    0.993 --   536 C    0.959
   556   1 H    0.993 --   537 C    0.951
   557   1 H    0.996 --   539 C    0.950
   558   1 H    0.991 --   541 C    0.965
   559   1 H    0.985 --   541 C    0.963
   560   1 H    0.979 --   542 C    0.939
   561   1 H    0.982 --   544 C    0.947
   562   1 H    0.920 --   549 N    0.843
   563   1 H    0.912 --   551 N    0.860
   564   1 H    0.901 --   551 N    0.880
   565  15 P    5.682 --   567 O    1.715   566 O    1.652   540 O    1.168
                           568 O    1.092
   566   8 O    1.831 --   565 P    1.652
   567   8 O    1.896 --   565 P    1.715
   568   8 O    2.249 --   565 P    1.092   569 C    0.955
   569   6 C    3.922 --   570 C    0.990   584 H    0.956   568 O    0.955
                           585 H    0.955
   570   6 C    3.942 --   569 C    0.990   571 O    0.985   572 C    0.944
                           586 H    0.937
   571   8 O    2.087 --   570 C    0.985   575 C    0.971
   572   6 C    3.906 --   574 C    0.975   587 H    0.952   573 O    0.952
                           570 C    0.944
   573   8 O    2.338 --   595 P    1.165   572 C    0.952
   574   6 C    3.960 --   572 C    0.975   575 C    0.966   589 H    0.965
                           588 H    0.960
   575   6 C    3.904 --   576 N    0.978   571 O    0.971   574 C    0.966
                           590 H    0.917
   576   7 N    3.505 --   583 C    1.201   577 C    1.064   575 C    0.978
   577   6 C    3.943 --   578 O    1.593   579 N    1.198   576 N    1.064
   578   8 O    1.964 --   577 C    1.593   579 N    0.134
   579   7 N    3.038 --   580 C    1.341   577 C    1.198   578 O    0.134
                           581 N    0.113
   580   6 C    3.968 --   581 N    1.374   579 N    1.341   582 C    1.169
   581   7 N    3.412 --   580 C    1.374   592 H    0.902   591 H    0.874
                           579 N    0.113
   582   6 C    3.849 --   583 C    1.600   580 C    1.169   593 H    0.942
   583   6 C    3.926 --   582 C    1.600   576 N    1.201   594 H    0.949
   584   1 H    0.987 --   569 C    0.956
   585   1 H    0.993 --   569 C    0.955
   586   1 H    0.976 --   570 C    0.937
   587   1 H    0.994 --   572 C    0.952
   588   1 H    0.991 --   574 C    0.960
   589   1 H    0.987 --   574 C    0.965
   590   1 H    0.960 --   575 C    0.917
   591   1 H    0.929 --   581 N    0.874
   592   1 H    0.922 --   581 N    0.902
   593   1 H    0.976 --   582 C    0.942
   594   1 H    0.976 --   583 C    0.949
   595  15 P    5.623 --   596 O    1.643   597 O    1.600   573 O    1.165
                           598 O    1.147
   596   8 O    1.809 --   595 P    1.643
   597   8 O    1.763 --   595 P    1.600
   598   8 O    2.297 --   595 P    1.147   599 C    0.947
   599   6 C    3.908 --   600 C    0.986   616 H    0.950   598 O    0.947
                           615 H    0.946
   600   6 C    3.924 --   599 C    0.986   602 C    0.958   617 H    0.949
                           601 O    0.939
   601   8 O    2.100 --   605 C    1.021   600 C    0.939
   602   6 C    3.940 --   603 O    1.000   604 C    0.989   600 C    0.958
                           618 H    0.950
   603   8 O    1.936 --   602 C    1.000   619 H    0.854
   604   6 C    3.942 --   602 C    0.989   621 H    0.962   620 H    0.961
                           605 C    0.952
   605   6 C    3.896 --   601 O    1.021   604 C    0.952   606 N    0.927
                           622 H    0.922
   606   7 N    3.518 --   614 C    1.284   607 C    1.059   605 C    0.927
   607   6 C    3.951 --   608 O    1.642   609 N    1.181   606 N    1.059
   608   8 O    1.945 --   607 C    1.642   609 N    0.135
   609   7 N    3.539 --   607 C    1.181   610 C    1.145   623 H    0.840
                           611 O    0.137   608 O    0.135
   610   6 C    3.931 --   611 O    1.665   609 N    1.145   612 C    1.044
   611   8 O    1.978 --   610 C    1.665   609 N    0.137
   612   6 C    3.759 --   614 C    1.465   613 C    1.082   610 C    1.044
   613   6 C    3.870 --   612 C    1.082   626 H    0.966   624 H    0.890
                           625 H    0.877
   614   6 C    3.836 --   612 C    1.465   606 N    1.284   627 H    0.929
   615   1 H    0.990 --   599 C    0.946
   616   1 H    0.993 --   599 C    0.950
   617   1 H    0.981 --   600 C    0.949
   618   1 H    0.984 --   602 C    0.950
   619   1 H    0.878 --   603 O    0.854
   620   1 H    0.985 --   604 C    0.961
   621   1 H    0.986 --   604 C    0.962
   622   1 H    0.963 --   605 C    0.922
   623   1 H    0.927 --   609 N    0.840
   624   1 H    0.925 --   613 C    0.890
   625   1 H    0.915 --   613 C    0.877
   626   1 H    0.980 --   613 C    0.966
   627   1 H    0.968 --   614 C    0.929
 ---------------------------------------------------------------------------

Topologies differ in total number of bonds
Writing topology from bond orders to xtbtopo.mol

molecular dipole:
                 x           y           z       tot (Debye)
 q only:      -16.240      -2.019       8.580
   full:      -16.378      -2.603      11.708      51.597
molecular quadrupole (traceless):
                xx          xy          yy          xz          yz          zz
 q only:     -909.667     350.149    -678.882   -1386.134   -1734.059    1588.549
  q+dip:    -1253.783      98.534    -882.094   -1001.183   -1299.512    2135.877
   full:    -1257.639     107.121    -878.620   -1009.408   -1303.614    2136.259


           -------------------------------------------------
          | TOTAL ENERGY            -1267.742967807467 Eh   |
          | GRADIENT NORM               0.810006224607 Eh/α |
          | HOMO-LUMO GAP               0.000246372878 eV   |
           -------------------------------------------------

------------------------------------------------------------------------
 * finished run on 2023/04/12 at 14:27:37.932     
------------------------------------------------------------------------
 total:
 * wall-time:     0 d,  0 h,  0 min, 32.025 sec
 *  cpu-time:     0 d,  0 h,  5 min, 17.132 sec
 * ratio c/w:     9.903 speedup
 SCF:
 * wall-time:     0 d,  0 h,  0 min, 31.281 sec
 *  cpu-time:     0 d,  0 h,  5 min, 11.235 sec
 * ratio c/w:     9.950 speedup

