      -----------------------------------------------------------      
     |                   =====================                   |     
     |                           x T B                           |     
     |                   =====================                   |     
     |                         S. Grimme                         |     
     |          Mulliken Center for Theoretical Chemistry        |     
     |                    University of Bonn                     |     
      -----------------------------------------------------------      

   * xtb version 6.5.1 (579679a) compiled by 'ehlert@majestix' on 2022-07-11

   xtb is free software: you can redistribute it and/or modify it under
   the terms of the GNU Lesser General Public License as published by
   the Free Software Foundation, either version 3 of the License, or
   (at your option) any later version.
   
   xtb is distributed in the hope that it will be useful,
   but WITHOUT ANY WARRANTY; without even the implied warranty of
   MERCHANTABILITY or FITNESS FOR A PARTICULAR PURPOSE.  See the
   GNU Lesser General Public License for more details.
   
   Cite this work as:
   * C. Bannwarth, E. Caldeweyher, S. Ehlert, A. Hansen, P. Pracht,
     J. Seibert, S. Spicher, S. Grimme, WIREs Comput. Mol. Sci., 2020, 11,
     e01493. DOI: 10.1002/wcms.1493
   
   for GFN2-xTB:
   * C. Bannwarth, S. Ehlert and S. Grimme., J. Chem. Theory Comput., 2019,
     15, 1652-1671. DOI: 10.1021/acs.jctc.8b01176
   for GFN1-xTB:
   * S. Grimme, C. Bannwarth, P. Shushkov, J. Chem. Theory Comput., 2017,
     13, 1989-2009. DOI: 10.1021/acs.jctc.7b00118
   for GFN0-xTB:
   * P. Pracht, E. Caldeweyher, S. Ehlert, S. Grimme, ChemRxiv, 2019, preprint.
     DOI: 10.26434/chemrxiv.8326202.v1
   for GFN-FF:
   * S. Spicher and S. Grimme, Angew. Chem. Int. Ed., 2020, 59, 15665-15673.
     DOI: 10.1002/anie.202004239
   
   for ALPB and GBSA implicit solvation:
   * S. Ehlert, M. Stahn, S. Spicher, S. Grimme, J. Chem. Theory Comput.,
     2021, 17, 4250-4261. DOI: 10.1021/acs.jctc.1c00471
   
   for DFT-D4:
   * E. Caldeweyher, C. Bannwarth and S. Grimme, J. Chem. Phys., 2017,
     147, 034112. DOI: 10.1063/1.4993215
   * E. Caldeweyher, S. Ehlert, A. Hansen, H. Neugebauer, S. Spicher,
     C. Bannwarth and S. Grimme, J. Chem. Phys., 2019, 150, 154122.
     DOI: 10.1063/1.5090222
   * E. Caldeweyher, J.-M. Mewes, S. Ehlert and S. Grimme, Phys. Chem. Chem. Phys.
     2020, 22, 8499-8512. DOI: 10.1039/D0CP00502A
   
   for sTDA-xTB:
   * S. Grimme and C. Bannwarth, J. Chem. Phys., 2016, 145, 054103.
     DOI: 10.1063/1.4959605
   
   in the mass-spec context:
   * V. Asgeirsson, C. Bauer and S. Grimme, Chem. Sci., 2017, 8, 4879.
     DOI: 10.1039/c7sc00601b
   * J. Koopman and S. Grimme, ACS Omega 2019, 4, 12, 15120-15133.
     DOI: 10.1021/acsomega.9b02011
   
   for metadynamics refer to:
   * S. Grimme, J. Chem. Theory Comput., 2019, 155, 2847-2862
     DOI: 10.1021/acs.jctc.9b00143
   
   for SPH calculations refer to:
   * S. Spicher and S. Grimme, J. Chem. Theory Comput., 2021, 17, 1701-1714
     DOI: 10.1021/acs.jctc.0c01306
   
   with help from (in alphabetical order)
   P. Atkinson, C. Bannwarth, F. Bohle, G. Brandenburg, E. Caldeweyher
   M. Checinski, S. Dohm, S. Ehlert, S. Ehrlich, I. Gerasimov, C. Hölzer
   A. Katbashev, J. Koopman, C. Lavigne, S. Lehtola, F. März, M. Müller,
   F. Musil, H. Neugebauer, J. Pisarek, C. Plett, P. Pracht, F. Pultar,
   J. Seibert, P. Shushkov, S. Spicher, M. Stahn, M. Steiner, T. Strunk,
   J. Stückrath, T. Rose, and J. Unsleber
   
 * started run on 2023/03/09 at 13:52:04.955     

           -------------------------------------------------
          |                Calculation Setup                |
           -------------------------------------------------

          program call               : /N/u/schandy/BigRed3/bin/xtb-6.5.1/bin/xtb 1k2k.xyz --gbsa water
          hostname                   : nid00056
          coordinate file            : 1k2k.xyz
          omp threads                :                    10

   ID    Z sym.   atoms
    1    8 O      1, 4, 6, 11, 30-32, 35, 37, 45, 63-65, 68, 70, 75, 78,
                  95-97, 100, 102, 127-129, 132, 134, 139, 157-159, 162, 164,
                  172, 190, 193, 195, 200, 219-221, 224, 226, 234, 252-254,
                  257, 259, 264, 267, 284-286, 289, 291, 316-318, 321, 323,
                  328, 346-348, 351, 353, 361
    2    6 C      2, 3, 5, 7, 8, 10, 13, 15, 16, 33, 34, 36, 38, 39, 41, 43,
                  44, 47, 50, 66, 67, 69, 71, 72, 74, 77, 79-81, 98, 99, 101,
                  103, 104, 106, 108, 109, 112, 114, 130, 131, 133, 135, 136,
                  138, 141, 143, 144, 160, 161, 163, 165, 166, 168, 170, 171,
                  174, 177, 191, 192, 194, 196, 197, 199, 202, 204, 205, 222,
                  223, 225, 227, 228, 230, 232, 233, 236, 239, 255, 256, 258,
                  260, 261, 263, 266, 268-270, 287, 288, 290, 292, 293, 295,
                  297, 298, 301, 303, 319, 320, 322, 324, 325, 327, 330, 332,
                  333, 349, 350, 352, 354, 355, 357, 359, 360, 363, 366
    3    7 N      9, 12, 14, 40, 42, 46, 48, 49, 73, 76, 105, 107, 110, 111,
                  113, 137, 140, 142, 167, 169, 173, 175, 176, 198, 201, 203,
                  229, 231, 235, 237, 238, 262, 265, 294, 296, 299, 300, 302,
                  326, 329, 331, 356, 358, 362, 364, 365
    4    1 H      17-28, 51-61, 82-93, 115-125, 145-155, 178-189, 206-217,
                  240-250, 271-282, 304-314, 334-344, 367-388
    5   15 P      29, 62, 94, 126, 156, 218, 251, 283, 315, 345

molecular fragmentation (1/2 indicates fragments):
111111111111111111111111111111111111111111111111111111111111111111111111
111111111111111111111111111111111111111111111111111111111111111111111111
111111111111111111111111111111111111111111111222222222222222222222222222
222222222222222222222222222222222222222222222222222222222222222222222222
222222222222222222222222222222222222222222222222222222222222222222222222
2222222222222222221111122222
# atoms in fragment 1/2:   194   194
 fragment masses (1/2) :     1792.21     1792.21
CMA distance (Bohr)    :  10.989
constraining FC (au)   :  0.0500

           -------------------------------------------------
          |                 G F N 2 - x T B                 |
           -------------------------------------------------

        Reference                      10.1021/acs.jctc.8b01176
      * Hamiltonian:
        H0-scaling (s, p, d)           1.850000    2.230000    2.230000
        zeta-weighting                 0.500000
      * Dispersion:
        s8                             2.700000
        a1                             0.520000
        a2                             5.000000
        s9                             5.000000
      * Repulsion:
        kExp                           1.500000    1.000000
        rExp                           1.000000
      * Coulomb:
        alpha                          2.000000
        third order                    shell-resolved
        anisotropic                    true
        a3                             3.000000
        a5                             4.000000
        cn-shift                       1.200000
        cn-exp                         4.000000
        max-rad                        5.000000

      * Solvation model:               GBSA
        Solvent                        water
        Parameter file                 internal GFN2-xTB/GBSA
        Dielectric constant                8.0200E+01
        Reference state                gsolv [1 M gas/solution]
        Free energy shift                  1.8574E-03 Eh       1.1656E+00 kcal/mol
        Temperature                        2.9815E+02 K
        Density                            1.0000E+00 kg/L
        Solvent mass                       1.8000E+01 g/mol
        Interaction kernel             Still
        Born radius scaling (c1)           1.5524E+00
        Born radii integrator          GBOBC
        Born offset                        2.4628E-02 a0       4.6540E-02 AA
        H-bond correction              true
        Ion screening                  false
        Surface tension                    1.0000E-05 Eh       1.5569E+01 dyn/cm
        Grid points                               230 per atom

          ...................................................
          :                      SETUP                      :
          :.................................................:
          :  # basis functions                1168          :
          :  # atomic orbitals                1158          :
          :  # shells                          638          :
          :  # electrons                      1300          :
          :  max. iterations                   250          :
          :  Hamiltonian                  GFN2-xTB          :
          :  restarted?                      false          :
          :  GBSA solvation                   true          :
          :  PC potential                    false          :
          :  electronic temp.          300.0000000     K    :
          :  accuracy                    1.0000000          :
          :  -> integral cutoff          0.2500000E+02      :
          :  -> integral neglect         0.1000000E-07      :
          :  -> SCF convergence          0.1000000E-05 Eh   :
          :  -> wf. convergence          0.1000000E-03 e    :
          :  Broyden damping             0.4000000          :
          ...................................................

 iter      E             dE          RMSdq      gap      omega  full diag
   1   -767.8536614 -0.767854E+03  0.579E+00    2.54       0.0  T
   2   -769.6015097 -0.174785E+01  0.335E+00    2.29       1.0  T
   3   -769.6750294 -0.735198E-01  0.150E+00    2.70       1.0  T
   4   -769.8726132 -0.197584E+00  0.679E-01    2.41       1.0  T
   5   -769.9496331 -0.770199E-01  0.309E-01    2.50       1.0  T
   6   -769.9582153 -0.858225E-02  0.127E-01    2.48       1.0  T
   7   -769.9601090 -0.189370E-02  0.633E-02    2.49       1.0  T
   8   -769.9603227 -0.213626E-03  0.356E-02    2.49       1.0  T
   9   -769.9604434 -0.120702E-03  0.148E-02    2.49       1.0  T
  10   -769.9604699 -0.265373E-04  0.562E-03    2.49       1.0  T
  11   -769.9604716 -0.168704E-05  0.304E-03    2.49       1.7  T
  12   -769.9604728 -0.127028E-05  0.102E-03    2.49       5.0  T
  13   -769.9604729 -0.937555E-07  0.474E-04    2.49      10.7  T
  14   -769.9604730 -0.113480E-07  0.205E-04    2.49      24.8  T

   *** convergence criteria satisfied after 14 iterations ***

         #    Occupation            Energy/Eh            Energy/eV
      -------------------------------------------------------------
         1        2.0000           -0.7812675             -21.2594
       ...           ...                  ...                  ...
       644        2.0000           -0.3854667             -10.4891
       645        2.0000           -0.3810058             -10.3677
       646        2.0000           -0.3798101             -10.3352
       647        2.0000           -0.3796662             -10.3312
       648        2.0000           -0.3778221             -10.2811
       649        2.0000           -0.3704545             -10.0806
       650        2.0000           -0.3693003             -10.0492 (HOMO)
       651                         -0.2779069              -7.5622 (LUMO)
       652                         -0.2773115              -7.5460
       653                         -0.2756267              -7.5002
       654                         -0.2735172              -7.4428
       655                         -0.2697771              -7.3410
       ...                                ...                  ...
      1158                          1.4202079              38.6458
      -------------------------------------------------------------
                  HL-Gap            0.0913934 Eh            2.4869 eV
             Fermi-level           -0.3236036 Eh           -8.8057 eV

 SCC (total)                   0 d,  0 h,  0 min,  2.913 sec
 SCC setup                      ...        0 min,  0.024 sec (  0.810%)
 Dispersion                     ...        0 min,  0.047 sec (  1.609%)
 classical contributions        ...        0 min,  0.001 sec (  0.046%)
 integral evaluation            ...        0 min,  0.154 sec (  5.301%)
 iterations                     ...        0 min,  2.064 sec ( 70.842%)
 molecular gradient             ...        0 min,  0.608 sec ( 20.874%)
 printout                       ...        0 min,  0.015 sec (  0.514%)

         :::::::::::::::::::::::::::::::::::::::::::::::::::::
         ::                     SUMMARY                     ::
         :::::::::::::::::::::::::::::::::::::::::::::::::::::
         :: total energy            -762.678672558050 Eh    ::
         :: total w/o Gsasa/hb      -762.555013779008 Eh    ::
         :: gradient norm              0.493592784982 Eh/a0 ::
         :: HOMO-LUMO gap              2.486939679592 eV    ::
         ::.................................................::
         :: SCC energy              -769.960472954614 Eh    ::
         :: -> isotropic ES            2.595101637665 Eh    ::
         :: -> anisotropic ES         -0.160641386254 Eh    ::
         :: -> anisotropic XC          0.144091883223 Eh    ::
         :: -> dispersion             -0.654483465583 Eh    ::
         :: -> Gsolv                  -0.432986823524 Eh    ::
         ::    -> Gelec               -0.309328044483 Eh    ::
         ::    -> Gsasa               -0.012878244170 Eh    ::
         ::    -> Ghb                 -0.112637977999 Eh    ::
         ::    -> Gshift               0.001857443127 Eh    ::
         :: repulsion energy           7.231327334291 Eh    ::
         :: add. restraining           0.000000000000 Eh    ::
         :: total charge              -0.000000000000 e     ::
         :::::::::::::::::::::::::::::::::::::::::::::::::::::

           -------------------------------------------------
          |                Property Printout                |
           -------------------------------------------------

    * Orbital Energies and Occupations

         #    Occupation            Energy/Eh            Energy/eV
      -------------------------------------------------------------
         1        2.0000           -0.7812675             -21.2594
       ...           ...                  ...                  ...
       638        2.0000           -0.3987318             -10.8500
       639        2.0000           -0.3947886             -10.7427
       640        2.0000           -0.3930695             -10.6960
       641        2.0000           -0.3884467             -10.5702
       642        2.0000           -0.3866937             -10.5225
       643        2.0000           -0.3862427             -10.5102
       644        2.0000           -0.3854667             -10.4891
       645        2.0000           -0.3810058             -10.3677
       646        2.0000           -0.3798101             -10.3352
       647        2.0000           -0.3796662             -10.3312
       648        2.0000           -0.3778221             -10.2811
       649        2.0000           -0.3704545             -10.0806
       650        2.0000           -0.3693003             -10.0492 (HOMO)
       651                         -0.2779069              -7.5622 (LUMO)
       652                         -0.2773115              -7.5460
       653                         -0.2756267              -7.5002
       654                         -0.2735172              -7.4428
       655                         -0.2697771              -7.3410
       656                         -0.2667630              -7.2590
       657                         -0.2663973              -7.2490
       658                         -0.2614483              -7.1144
       659                         -0.2502378              -6.8093
       660                         -0.2480876              -6.7508
       661                         -0.2455524              -6.6818
       ...                                ...                  ...
      1158                          1.4202079              38.6458
      -------------------------------------------------------------
                  HL-Gap            0.0913934 Eh            2.4869 eV
             Fermi-level           -0.3236036 Eh           -8.8057 eV

 * generalized Born model for continuum solvation

     #   Z     Born rad/Å   SASA/Å²    H-bond
     1   8 O        2.301    14.048    -0.002
     2   6 C        2.732     1.588    -0.000
     3   6 C        3.168     0.309    -0.000
     4   8 O        2.836     8.938    -0.001
     5   6 C        3.261     0.081    -0.000
     6   8 O        2.697     1.260    -0.000
     7   6 C        3.220     1.021    -0.000
     8   6 C        3.490     0.745    -0.000
     9   7 N        3.394     1.241    -0.000
    10   6 C        3.389     4.299    -0.000
    11   8 O        2.764     3.798    -0.001
    12   7 N        3.304     1.386    -0.000
    13   6 C        3.394     4.405    -0.000
    14   7 N        2.556     3.946    -0.001
    15   6 C        3.018     8.962    -0.000
    16   6 C        3.109     6.615    -0.000
    17   1 H        2.063    18.557    -0.025
    18   1 H        2.061    18.258    -0.024
    19   1 H        2.143    16.364    -0.022
    20   1 H        2.211     9.230    -0.012
    21   1 H        2.299    10.160    -0.014
    22   1 H        2.349     3.641    -0.005
    23   1 H        2.389    10.326    -0.014
    24   1 H        2.446     2.403    -0.003
    25   1 H        2.125    20.263    -0.027
    26   1 H        2.068    18.574    -0.025
    27   1 H        2.281     5.826    -0.008
    28   1 H        2.037     9.953    -0.013
    29  15 P        3.271     5.029    -0.001
    30   8 O        2.235    14.706    -0.002
    31   8 O        2.252    18.293    -0.003
    32   8 O        2.740     1.215    -0.000
    33   6 C        2.868     0.594    -0.000
    34   6 C        3.218     0.385    -0.000
    35   8 O        2.952     9.554    -0.001
    36   6 C        3.266     0.381    -0.000
    37   8 O        2.661     4.490    -0.001
    38   6 C        3.340     0.319    -0.000
    39   6 C        3.666     0.117    -0.000
    40   7 N        3.986     0.271    -0.000
    41   6 C        3.385     0.465    -0.000
    42   7 N        2.973     6.559    -0.002
    43   6 C        4.319     0.034    -0.000
    44   6 C        3.746     0.035    -0.000
    45   8 O        2.716     7.363    -0.001
    46   7 N        3.766     0.000    -0.000
    47   6 C        4.054     0.005    -0.000
    48   7 N        2.794     0.741    -0.000
    49   7 N        3.339     4.025    -0.001
    50   6 C        4.525     1.405    -0.000
    51   1 H        2.153    13.384    -0.018
    52   1 H        2.122    12.582    -0.017
    53   1 H        2.143    17.108    -0.023
    54   1 H        2.196    11.198    -0.015
    55   1 H        2.407     5.835    -0.008
    56   1 H        2.402     2.282    -0.003
    57   1 H        2.558     3.276    -0.004
    58   1 H        2.407     2.926    -0.004
    59   1 H        3.516     0.000    -0.000
    60   1 H        2.593     4.398    -0.006
    61   1 H        2.281    15.584    -0.021
    62  15 P        3.220     6.759    -0.001
    63   8 O        2.212    12.272    -0.002
    64   8 O        2.199    23.876    -0.003
    65   8 O        2.622     3.941    -0.001
    66   6 C        2.890     0.349    -0.000
    67   6 C        3.351     0.070    -0.000
    68   8 O        3.243     0.396    -0.000
    69   6 C        3.322     0.180    -0.000
    70   8 O        2.697     3.197    -0.000
    71   6 C        3.262     0.952    -0.000
    72   6 C        3.816     0.002    -0.000
    73   7 N        3.858     0.248    -0.000
    74   6 C        3.818     0.043    -0.000
    75   8 O        2.738     3.296    -0.000
    76   7 N        3.568     0.002    -0.000
    77   6 C        3.611     0.355    -0.000
    78   8 O        2.654     6.780    -0.001
    79   6 C        3.819     1.136    -0.000
    80   6 C        2.776     2.307    -0.000
    81   6 C        3.590     3.085    -0.000
    82   1 H        2.258     8.200    -0.011
    83   1 H        2.142    14.244    -0.019
    84   1 H        2.294    13.516    -0.018
    85   1 H        2.226     9.302    -0.012
    86   1 H        2.295    11.516    -0.015
    87   1 H        2.306     3.244    -0.004
    88   1 H        2.509     3.013    -0.004
    89   1 H        3.415     0.000    -0.000
    90   1 H        2.108    20.708    -0.028
    91   1 H        2.222    10.381    -0.014
    92   1 H        2.214     8.361    -0.011
    93   1 H        2.465     3.230    -0.004
    94  15 P        3.247     5.418    -0.001
    95   8 O        2.196    24.375    -0.003
    96   8 O        2.272     8.971    -0.001
    97   8 O        2.652     1.089    -0.000
    98   6 C        2.861     0.559    -0.000
    99   6 C        3.223     0.294    -0.000
   100   8 O        2.945     5.698    -0.001
   101   6 C        3.278     0.241    -0.000
   102   8 O        2.613     6.353    -0.001
   103   6 C        3.341     0.185    -0.000
   104   6 C        3.621     0.233    -0.000
   105   7 N        4.006     0.008    -0.000
   106   6 C        3.352     1.057    -0.000
   107   7 N        3.013     8.387    -0.003
   108   6 C        4.864     0.002    -0.000
   109   6 C        4.421     0.000    -0.000
   110   7 N        2.857     0.366    -0.000
   111   7 N        3.887     0.001    -0.000
   112   6 C        3.624     0.109    -0.000
   113   7 N        3.226     4.334    -0.001
   114   6 C        4.734     0.060    -0.000
   115   1 H        2.160    12.936    -0.017
   116   1 H        2.124    14.380    -0.019
   117   1 H        2.165    16.935    -0.023
   118   1 H        2.267     7.857    -0.010
   119   1 H        2.386     7.972    -0.011
   120   1 H        2.481     0.579    -0.001
   121   1 H        2.476     8.359    -0.011
   122   1 H        2.312     8.600    -0.011
   123   1 H        2.701     1.787    -0.002
   124   1 H        2.337    13.724    -0.018
   125   1 H        2.520     6.153    -0.008
   126  15 P        3.219     6.393    -0.001
   127   8 O        2.220    11.676    -0.002
   128   8 O        2.201    23.687    -0.003
   129   8 O        2.585     6.490    -0.001
   130   6 C        2.849     0.474    -0.000
   131   6 C        3.362     0.037    -0.000
   132   8 O        3.172     0.837    -0.000
   133   6 C        3.345     0.019    -0.000
   134   8 O        2.656     4.519    -0.001
   135   6 C        3.386     0.019    -0.000
   136   6 C        3.754     0.042    -0.000
   137   7 N        4.023     0.000    -0.000
   138   6 C        3.856     0.044    -0.000
   139   8 O        2.820     5.159    -0.001
   140   7 N        3.839     0.000     0.000
   141   6 C        4.003     0.000    -0.000
   142   7 N        2.791     0.536    -0.000
   143   6 C        3.409     0.385    -0.000
   144   6 C        3.540     0.392    -0.000
   145   1 H        2.207    11.118    -0.015
   146   1 H        2.138    11.519    -0.015
   147   1 H        2.430    10.504    -0.014
   148   1 H        2.329     6.830    -0.009
   149   1 H        2.513     2.442    -0.003
   150   1 H        2.362     3.228    -0.004
   151   1 H        2.392    11.469    -0.015
   152   1 H        2.661     2.428    -0.003
   153   1 H        2.282    13.009    -0.017
   154   1 H        2.185    14.873    -0.020
   155   1 H        2.400     6.942    -0.009
   156  15 P        3.232     5.792    -0.001
   157   8 O        2.192    24.714    -0.003
   158   8 O        2.262    11.247    -0.002
   159   8 O        2.633     1.457    -0.000
   160   6 C        2.833     0.514    -0.000
   161   6 C        3.157     0.241    -0.000
   162   8 O        2.919     6.048    -0.001
   163   6 C        3.064     0.694    -0.000
   164   8 O        2.282    17.211    -0.002
   165   6 C        2.984     1.662    -0.000
   166   6 C        3.349     0.390    -0.000
   167   7 N        3.504     1.564    -0.000
   168   6 C        3.057     5.909    -0.000
   169   7 N        2.736    14.325    -0.004
   170   6 C        3.738     3.427    -0.000
   171   6 C        3.335     4.144    -0.000
   172   8 O        2.526    11.203    -0.002
   173   7 N        3.339     2.023    -0.001
   174   6 C        3.594     4.186    -0.000
   175   7 N        2.733     3.294    -0.001
   176   7 N        3.005     9.381    -0.003
   177   6 C        3.895     3.773    -0.000
   178   1 H        2.154    13.344    -0.018
   179   1 H        2.109    14.168    -0.019
   180   1 H        2.161    15.186    -0.020
   181   1 H        2.134    14.341    -0.019
   182   1 H        1.992    15.683    -0.021
   183   1 H        2.197    11.029    -0.015
   184   1 H        2.113    16.926    -0.023
   185   1 H        2.302    12.157    -0.016
   186   1 H        2.201    10.283    -0.014
   187   1 H        3.150     0.109    -0.000
   188   1 H        2.677     1.317    -0.002
   189   1 H        2.248    16.923    -0.023
   190   8 O        2.311     6.042    -0.001
   191   6 C        2.737     0.804    -0.000
   192   6 C        3.159     0.274    -0.000
   193   8 O        2.826     9.044    -0.001
   194   6 C        3.259     0.048    -0.000
   195   8 O        2.698     1.255    -0.000
   196   6 C        3.216     1.014    -0.000
   197   6 C        3.486     0.681    -0.000
   198   7 N        3.394     1.288    -0.000
   199   6 C        3.391     4.268    -0.000
   200   8 O        2.767     3.703    -0.001
   201   7 N        3.310     1.343    -0.000
   202   6 C        3.402     4.190    -0.000
   203   7 N        2.558     4.023    -0.001
   204   6 C        3.017     8.957    -0.000
   205   6 C        3.102     6.545    -0.000
   206   1 H        2.065    18.321    -0.024
   207   1 H        2.074    17.161    -0.023
   208   1 H        2.142    16.440    -0.022
   209   1 H        2.212     8.527    -0.011
   210   1 H        2.290    10.421    -0.014
   211   1 H        2.352     3.572    -0.005
   212   1 H        2.390    10.178    -0.014
   213   1 H        2.455     2.562    -0.003
   214   1 H        2.131    19.688    -0.026
   215   1 H        2.067    18.505    -0.025
   216   1 H        2.242     7.908    -0.011
   217   1 H        1.928    22.819    -0.030
   218  15 P        3.270     4.057    -0.000
   219   8 O        2.235    12.073    -0.002
   220   8 O        2.259    17.891    -0.002
   221   8 O        2.720     1.266    -0.000
   222   6 C        2.850     0.676    -0.000
   223   6 C        3.214     0.415    -0.000
   224   8 O        2.951     9.410    -0.001
   225   6 C        3.261     0.375    -0.000
   226   8 O        2.654     4.892    -0.001
   227   6 C        3.338     0.310    -0.000
   228   6 C        3.665     0.155    -0.000
   229   7 N        3.985     0.244    -0.000
   230   6 C        3.384     0.380    -0.000
   231   7 N        2.973     6.525    -0.002
   232   6 C        4.321     0.019    -0.000
   233   6 C        3.749     0.020    -0.000
   234   8 O        2.719     7.245    -0.001
   235   7 N        3.763     0.000    -0.000
   236   6 C        4.055     0.009    -0.000
   237   7 N        2.794     0.749    -0.000
   238   7 N        3.338     4.176    -0.001
   239   6 C        4.525     1.258    -0.000
   240   1 H        2.144    13.832    -0.018
   241   1 H        2.102    15.319    -0.020
   242   1 H        2.142    17.083    -0.023
   243   1 H        2.194    11.224    -0.015
   244   1 H        2.406     5.785    -0.008
   245   1 H        2.401     2.312    -0.003
   246   1 H        2.558     3.377    -0.005
   247   1 H        2.406     2.936    -0.004
   248   1 H        3.522     0.000    -0.000
   249   1 H        2.594     4.391    -0.006
   250   1 H        2.284    15.383    -0.021
   251  15 P        3.220     8.834    -0.001
   252   8 O        2.212    15.066    -0.002
   253   8 O        2.195    24.085    -0.003
   254   8 O        2.637     3.891    -0.001
   255   6 C        2.905     0.325    -0.000
   256   6 C        3.354     0.073    -0.000
   257   8 O        3.245     0.401    -0.000
   258   6 C        3.315     0.176    -0.000
   259   8 O        2.698     3.157    -0.000
   260   6 C        3.259     0.958    -0.000
   261   6 C        3.815     0.005    -0.000
   262   7 N        3.859     0.269    -0.000
   263   6 C        3.822     0.023    -0.000
   264   8 O        2.739     3.282    -0.000
   265   7 N        3.568     0.000    -0.000
   266   6 C        3.617     0.281    -0.000
   267   8 O        2.658     6.658    -0.001
   268   6 C        3.822     0.720    -0.000
   269   6 C        2.776     2.314    -0.000
   270   6 C        3.591     2.856    -0.000
   271   1 H        2.263     8.166    -0.011
   272   1 H        2.167    11.132    -0.015
   273   1 H        2.296    13.498    -0.018
   274   1 H        2.217    10.205    -0.014
   275   1 H        2.294    11.486    -0.015
   276   1 H        2.303     3.263    -0.004
   277   1 H        2.509     2.893    -0.004
   278   1 H        3.420     0.001    -0.000
   279   1 H        2.213     8.418    -0.011
   280   1 H        2.109    20.560    -0.027
   281   1 H        2.222    10.387    -0.014
   282   1 H        2.464     3.213    -0.004
   283  15 P        3.247     6.717    -0.001
   284   8 O        2.232    15.040    -0.002
   285   8 O        2.226    21.413    -0.003
   286   8 O        2.669     1.124    -0.000
   287   6 C        2.883     0.519    -0.000
   288   6 C        3.226     0.272    -0.000
   289   8 O        2.946     5.618    -0.001
   290   6 C        3.280     0.232    -0.000
   291   8 O        2.612     6.492    -0.001
   292   6 C        3.341     0.152    -0.000
   293   6 C        3.622     0.266    -0.000
   294   7 N        4.011     0.007    -0.000
   295   6 C        3.349     1.029    -0.000
   296   7 N        3.020     7.575    -0.002
   297   6 C        4.876     0.004    -0.000
   298   6 C        4.437     0.000     0.000
   299   7 N        2.853     0.185    -0.000
   300   7 N        3.896     0.000    -0.000
   301   6 C        3.627     0.118    -0.000
   302   7 N        3.227     4.217    -0.001
   303   6 C        4.739     0.134    -0.000
   304   1 H        2.168    12.845    -0.017
   305   1 H        2.161    11.066    -0.015
   306   1 H        2.166    16.926    -0.023
   307   1 H        2.268     7.843    -0.010
   308   1 H        2.385     8.001    -0.011
   309   1 H        2.481     0.581    -0.001
   310   1 H        2.477     8.334    -0.011
   311   1 H        2.319     8.531    -0.011
   312   1 H        2.722     1.655    -0.002
   313   1 H        2.342    13.371    -0.018
   314   1 H        2.521     6.136    -0.008
   315  15 P        3.218     8.582    -0.001
   316   8 O        2.220    15.040    -0.002
   317   8 O        2.195    24.189    -0.003
   318   8 O        2.598     6.515    -0.001
   319   6 C        2.865     0.430    -0.000
   320   6 C        3.358     0.058    -0.000
   321   8 O        3.171     0.843    -0.000
   322   6 C        3.321     0.017    -0.000
   323   8 O        2.645     4.538    -0.001
   324   6 C        3.379     0.021    -0.000
   325   6 C        3.753     0.034    -0.000
   326   7 N        4.022     0.000    -0.000
   327   6 C        3.856     0.038    -0.000
   328   8 O        2.821     5.149    -0.001
   329   7 N        3.841     0.000    -0.000
   330   6 C        4.004     0.000    -0.000
   331   7 N        2.791     0.150    -0.000
   332   6 C        3.408     0.317    -0.000
   333   6 C        3.538     0.428    -0.000
   334   1 H        2.225    10.052    -0.013
   335   1 H        2.147    11.550    -0.015
   336   1 H        2.429    10.471    -0.014
   337   1 H        2.291     7.954    -0.011
   338   1 H        2.506     2.574    -0.003
   339   1 H        2.359     3.198    -0.004
   340   1 H        2.391    11.553    -0.015
   341   1 H        2.666     2.374    -0.003
   342   1 H        2.264    14.212    -0.019
   343   1 H        2.184    14.779    -0.020
   344   1 H        2.399     6.836    -0.009
   345  15 P        3.232     6.448    -0.001
   346   8 O        2.232    14.884    -0.002
   347   8 O        2.217    21.201    -0.003
   348   8 O        2.651     1.511    -0.000
   349   6 C        2.859     0.485    -0.000
   350   6 C        3.159     0.223    -0.000
   351   8 O        2.912     5.946    -0.001
   352   6 C        3.067     0.395    -0.000
   353   8 O        2.282    15.288    -0.002
   354   6 C        2.965     1.631    -0.000
   355   6 C        3.331     0.442    -0.000
   356   7 N        3.500     1.547    -0.000
   357   6 C        3.053     6.015    -0.000
   358   7 N        2.734    14.280    -0.004
   359   6 C        3.735     3.465    -0.000
   360   6 C        3.333     4.117    -0.000
   361   8 O        2.524    11.390    -0.002
   362   7 N        3.338     1.994    -0.001
   363   6 C        3.595     4.128    -0.000
   364   7 N        2.736     3.282    -0.001
   365   7 N        3.005     9.261    -0.003
   366   6 C        3.892     3.777    -0.000
   367   1 H        2.165    13.119    -0.018
   368   1 H        2.149    10.518    -0.014
   369   1 H        2.165    14.742    -0.020
   370   1 H        2.153    13.459    -0.018
   371   1 H        1.949    19.554    -0.026
   372   1 H        2.195    11.031    -0.015
   373   1 H        2.101    17.557    -0.023
   374   1 H        2.292    13.632    -0.018
   375   1 H        2.199    10.339    -0.014
   376   1 H        3.145     0.120    -0.000
   377   1 H        2.678     1.339    -0.002
   378   1 H        2.250    16.832    -0.022
   379   1 H        1.955    15.451    -0.021
   380   1 H        1.894    23.640    -0.032
   381   1 H        1.918    21.786    -0.029
   382   1 H        1.893    23.723    -0.032
   383   1 H        1.945    16.759    -0.022
   384   1 H        1.960    15.775    -0.021
   385   1 H        1.951    15.985    -0.021
   386   1 H        1.960    16.013    -0.021
   387   1 H        1.937    17.266    -0.023
   388   1 H        1.910    21.833    -0.029

 total SASA / Å² :     2482.927

     #   Z          covCN         q      C6AA      α(0)
     1   8 O        1.654    -0.468    22.211     6.362
     2   6 C        3.674     0.055    19.886     6.390
     3   6 C        3.769     0.085    19.196     6.244
     4   8 O        1.699    -0.325    19.438     5.952
     5   6 C        3.942     0.118    18.597     6.128
     6   8 O        1.658    -0.341    19.742     5.998
     7   6 C        3.819    -0.084    22.085     6.688
     8   6 C        3.727     0.180    17.822     6.027
     9   7 N        2.742    -0.073    22.662     7.070
    10   6 C        2.732     0.336    21.288     7.554
    11   8 O        0.860    -0.534    24.561     6.645
    12   7 N        1.843    -0.352    29.993     8.116
    13   6 C        2.859     0.188    23.989     8.028
    14   7 N        2.648    -0.245    26.388     7.629
    15   6 C        2.908    -0.099    30.497     9.055
    16   6 C        2.878     0.046    26.968     8.513
    17   1 H        0.924     0.068     2.106     2.269
    18   1 H        0.924     0.072     2.065     2.247
    19   1 H        0.924     0.072     2.063     2.246
    20   1 H        0.924     0.062     2.181     2.309
    21   1 H        0.924     0.089     1.892     2.151
    22   1 H        0.924     0.062     2.181     2.310
    23   1 H        0.924     0.055     2.263     2.353
    24   1 H        0.858     0.234     0.949     1.526
    25   1 H        0.860     0.240     0.923     1.505
    26   1 H        0.925     0.102     1.763     2.077
    27   1 H        0.926     0.089     1.884     2.146
    28   1 H        0.804     0.329     0.640     1.256
    29  15 P        3.740     0.733   131.572    20.605
    30   8 O        1.614    -0.396    20.791     6.154
    31   8 O        0.808    -0.593    25.970     6.831
    32   8 O        1.658    -0.322    19.399     5.946
    33   6 C        3.892     0.052    19.660     6.303
    34   6 C        3.779     0.092    19.086     6.224
    35   8 O        1.702    -0.312    19.196     5.915
    36   6 C        3.931     0.109    18.730     6.150
    37   8 O        1.658    -0.334    19.615     5.979
    38   6 C        3.816    -0.093    22.254     6.714
    39   6 C        3.718     0.168    18.017     6.063
    40   7 N        2.823    -0.074    22.666     7.071
    41   6 C        3.170     0.097    25.515     8.252
    42   7 N        1.878    -0.297    28.544     7.920
    43   6 C        3.225     0.003    27.195     8.473
    44   6 C        2.769     0.270    22.445     7.759
    45   8 O        0.858    -0.513    24.074     6.578
    46   7 N        2.700    -0.206    25.488     7.498
    47   6 C        2.830     0.239    23.013     7.861
    48   7 N        2.651    -0.276    27.144     7.738
    49   7 N        1.841    -0.354    30.060     8.125
    50   6 C        3.103     0.129    25.066     8.204
    51   1 H        0.924     0.090     1.882     2.145
    52   1 H        0.924     0.082     1.956     2.187
    53   1 H        0.924     0.105     1.740     2.063
    54   1 H        0.924     0.076     2.019     2.222
    55   1 H        0.924     0.077     2.011     2.218
    56   1 H        0.925     0.081     1.971     2.196
    57   1 H        0.924     0.081     1.964     2.192
    58   1 H        0.926     0.062     2.174     2.306
    59   1 H        0.853     0.232     0.960     1.535
    60   1 H        0.858     0.238     0.933     1.513
    61   1 H        0.860     0.235     0.946     1.523
    62  15 P        3.778     0.732   131.612    20.608
    63   8 O        1.614    -0.389    20.652     6.134
    64   8 O        0.808    -0.595    26.015     6.837
    65   8 O        1.657    -0.315    19.266     5.925
    66   6 C        3.936     0.054    19.616     6.294
    67   6 C        3.798     0.091    19.079     6.219
    68   8 O        1.702    -0.312    19.209     5.917
    69   6 C        3.962     0.104    18.811     6.162
    70   8 O        1.658    -0.337    19.659     5.985
    71   6 C        3.812    -0.100    22.388     6.735
    72   6 C        3.776     0.170    17.908     6.029
    73   7 N        2.742    -0.065    22.490     7.043
    74   6 C        2.703     0.326    21.465     7.583
    75   8 O        0.858    -0.495    23.667     6.522
    76   7 N        2.687    -0.215    25.680     7.526
    77   6 C        2.763     0.280    22.262     7.727
    78   8 O        0.859    -0.461    22.934     6.421
    79   6 C        2.953    -0.036    28.887     8.815
    80   6 C        3.754    -0.126    22.984     6.836
    81   6 C        2.860     0.017    27.622     8.615
    82   1 H        0.924     0.084     1.938     2.177
    83   1 H        0.924     0.091     1.865     2.136
    84   1 H        0.923     0.085     1.925     2.170
    85   1 H        0.924     0.075     2.034     2.230
    86   1 H        0.924     0.100     1.788     2.091
    87   1 H        0.924     0.082     1.957     2.188
    88   1 H        0.924     0.073     2.057     2.243
    89   1 H        0.851     0.234     0.948     1.526
    90   1 H        0.924     0.091     1.870     2.138
    91   1 H        0.924     0.073     2.053     2.241
    92   1 H        0.924     0.066     2.133     2.284
    93   1 H        0.925     0.107     1.722     2.052
    94  15 P        3.756     0.748   131.069    20.566
    95   8 O        0.808    -0.606    26.284     6.872
    96   8 O        1.614    -0.402    20.907     6.171
    97   8 O        1.657    -0.317    19.312     5.932
    98   6 C        3.909     0.064    19.446     6.268
    99   6 C        3.769     0.092    19.094     6.227
   100   8 O        1.700    -0.317    19.292     5.930
   101   6 C        3.934     0.109    18.731     6.151
   102   8 O        1.657    -0.333    19.588     5.975
   103   6 C        3.815    -0.097    22.329     6.726
   104   6 C        3.703     0.173    17.970     6.061
   105   7 N        2.831    -0.070    22.603     7.061
   106   6 C        3.213     0.096    25.256     8.179
   107   7 N        1.874    -0.289    28.351     7.893
   108   6 C        3.261     0.019    26.418     8.303
   109   6 C        2.889     0.180    24.142     8.056
   110   7 N        2.646    -0.263    26.817     7.691
   111   7 N        1.844    -0.317    29.063     7.990
   112   6 C        2.927     0.158    24.593     8.133
   113   7 N        1.827    -0.331    29.446     8.041
   114   6 C        3.169     0.148    24.457     8.080
   115   1 H        0.924     0.079     1.986     2.204
   116   1 H        0.924     0.083     1.953     2.186
   117   1 H        0.924     0.093     1.846     2.125
   118   1 H        0.924     0.072     2.064     2.247
   119   1 H        0.924     0.077     2.007     2.215
   120   1 H        0.925     0.085     1.929     2.172
   121   1 H        0.924     0.069     2.095     2.264
   122   1 H        0.924     0.073     2.056     2.242
   123   1 H        0.858     0.228     0.974     1.546
   124   1 H        0.860     0.231     0.960     1.535
   125   1 H        0.925     0.034     2.530     2.488
   126  15 P        3.778     0.732   131.608    20.608
   127   8 O        1.614    -0.388    20.649     6.133
   128   8 O        0.808    -0.595    26.035     6.840
   129   8 O        1.658    -0.310    19.184     5.913
   130   6 C        3.924     0.060    19.512     6.278
   131   6 C        3.813     0.086    19.152     6.229
   132   8 O        1.702    -0.317    19.287     5.929
   133   6 C        3.936     0.101    18.866     6.173
   134   8 O        1.657    -0.338    19.680     5.989
   135   6 C        3.815    -0.083    22.073     6.687
   136   6 C        3.763     0.178    17.797     6.013
   137   7 N        2.748    -0.084    22.869     7.103
   138   6 C        2.734     0.333    21.349     7.565
   139   8 O        0.860    -0.529    24.436     6.628
   140   7 N        1.848    -0.357    30.143     8.137
   141   6 C        2.860     0.192    23.905     8.014
   142   7 N        2.649    -0.237    26.195     7.601
   143   6 C        2.908    -0.095    30.391     9.039
   144   6 C        2.870     0.037    27.165     8.544
   145   1 H        0.924     0.083     1.952     2.185
   146   1 H        0.924     0.091     1.872     2.140
   147   1 H        0.922     0.077     2.014     2.219
   148   1 H        0.924     0.064     2.154     2.295
   149   1 H        0.924     0.075     2.034     2.230
   150   1 H        0.924     0.073     2.052     2.240
   151   1 H        0.924     0.074     2.038     2.233
   152   1 H        0.858     0.239     0.926     1.507
   153   1 H        0.859     0.237     0.935     1.515
   154   1 H        0.925     0.105     1.744     2.065
   155   1 H        0.925     0.092     1.862     2.134
   156  15 P        3.778     0.745   131.184    20.574
   157   8 O        0.808    -0.603    26.215     6.863
   158   8 O        1.614    -0.393    20.735     6.146
   159   8 O        1.658    -0.306    19.111     5.901
   160   6 C        3.928     0.070    19.357     6.253
   161   6 C        3.764     0.089    19.139     6.236
   162   8 O        1.702    -0.328    19.490     5.961
   163   6 C        3.742     0.102    18.972     6.214
   164   8 O        1.654    -0.468    22.225     6.364
   165   6 C        3.800    -0.100    22.412     6.740
   166   6 C        3.711     0.165    18.065     6.074
   167   7 N        2.819    -0.072    22.632     7.066
   168   6 C        3.137     0.093    25.719     8.300
   169   7 N        1.880    -0.291    28.393     7.899
   170   6 C        3.190    -0.011    27.795     8.599
   171   6 C        2.769     0.261    22.598     7.785
   172   8 O        0.859    -0.502    23.825     6.544
   173   7 N        2.700    -0.205    25.448     7.492
   174   6 C        2.828     0.242    22.959     7.851
   175   7 N        2.651    -0.272    27.047     7.724
   176   7 N        1.841    -0.353    30.046     8.123
   177   6 C        3.099     0.130    25.053     8.203
   178   1 H        0.924     0.061     2.186     2.312
   179   1 H        0.924     0.075     2.036     2.231
   180   1 H        0.924     0.080     1.978     2.199
   181   1 H        0.924     0.069     2.096     2.264
   182   1 H        0.803     0.342     0.606     1.223
   183   1 H        0.924     0.073     2.054     2.241
   184   1 H        0.924     0.095     1.834     2.118
   185   1 H        0.924     0.077     2.015     2.220
   186   1 H        0.925     0.063     2.162     2.299
   187   1 H        0.854     0.234     0.951     1.528
   188   1 H        0.859     0.230     0.967     1.541
   189   1 H        0.859     0.239     0.929     1.509
   190   8 O        1.653    -0.488    22.627     6.421
   191   6 C        3.674     0.059    19.805     6.377
   192   6 C        3.772     0.094    19.057     6.221
   193   8 O        1.700    -0.319    19.320     5.934
   194   6 C        3.940     0.117    18.606     6.130
   195   8 O        1.658    -0.347    19.853     6.015
   196   6 C        3.820    -0.083    22.069     6.685
   197   6 C        3.729     0.182    17.790     6.021
   198   7 N        2.743    -0.072    22.634     7.066
   199   6 C        2.732     0.336    21.297     7.555
   200   8 O        0.860    -0.539    24.673     6.660
   201   7 N        1.843    -0.356    30.105     8.131
   202   6 C        2.859     0.185    24.038     8.036
   203   7 N        2.648    -0.251    26.523     7.649
   204   6 C        2.908    -0.100    30.526     9.060
   205   6 C        2.878     0.045    26.984     8.516
   206   1 H        0.924     0.065     2.144     2.290
   207   1 H        0.924     0.050     2.321     2.382
   208   1 H        0.924     0.071     2.077     2.254
   209   1 H        0.924     0.061     2.186     2.312
   210   1 H        0.924     0.095     1.830     2.116
   211   1 H        0.925     0.059     2.206     2.323
   212   1 H        0.923     0.049     2.334     2.389
   213   1 H        0.858     0.235     0.942     1.521
   214   1 H        0.860     0.240     0.924     1.505
   215   1 H        0.925     0.100     1.780     2.087
   216   1 H        0.925     0.106     1.733     2.059
   217   1 H        0.803     0.359     0.567     1.183
   218  15 P        3.738     0.733   131.579    20.605
   219   8 O        1.614    -0.402    20.909     6.172
   220   8 O        0.808    -0.611    26.425     6.891
   221   8 O        1.658    -0.303    19.066     5.894
   222   6 C        3.891     0.057    19.576     6.290
   223   6 C        3.779     0.091    19.091     6.225
   224   8 O        1.702    -0.311    19.187     5.914
   225   6 C        3.930     0.112    18.693     6.144
   226   8 O        1.658    -0.329    19.521     5.964
   227   6 C        3.816    -0.092    22.244     6.712
   228   6 C        3.718     0.168    18.014     6.063
   229   7 N        2.823    -0.074    22.678     7.073
   230   6 C        3.168     0.097    25.516     8.254
   231   7 N        1.877    -0.294    28.483     7.911
   232   6 C        3.223     0.002    27.223     8.480
   233   6 C        2.769     0.270    22.439     7.758
   234   8 O        0.859    -0.511    24.024     6.571
   235   7 N        2.702    -0.205    25.465     7.495
   236   6 C        2.830     0.239    23.022     7.862
   237   7 N        2.651    -0.276    27.132     7.736
   238   7 N        1.841    -0.354    30.046     8.123
   239   6 C        3.102     0.129    25.067     8.204
   240   1 H        0.924     0.086     1.915     2.164
   241   1 H        0.924     0.083     1.945     2.181
   242   1 H        0.924     0.102     1.771     2.081
   243   1 H        0.924     0.071     2.075     2.253
   244   1 H        0.924     0.076     2.025     2.225
   245   1 H        0.925     0.080     1.975     2.198
   246   1 H        0.924     0.083     1.948     2.183
   247   1 H        0.926     0.061     2.184     2.311
   248   1 H        0.854     0.233     0.954     1.530
   249   1 H        0.858     0.238     0.931     1.511
   250   1 H        0.860     0.235     0.944     1.522
   251  15 P        3.777     0.733   131.574    20.605
   252   8 O        1.614    -0.376    20.419     6.099
   253   8 O        0.808    -0.579    25.634     6.787
   254   8 O        1.657    -0.336    19.658     5.985
   255   6 C        3.936     0.052    19.634     6.297
   256   6 C        3.799     0.089    19.116     6.225
   257   8 O        1.702    -0.310    19.174     5.912
   258   6 C        3.963     0.107    18.755     6.153
   259   8 O        1.658    -0.326    19.473     5.957
   260   6 C        3.813    -0.094    22.275     6.718
   261   6 C        3.775     0.168    17.934     6.034
   262   7 N        2.742    -0.065    22.492     7.044
   263   6 C        2.703     0.325    21.475     7.585
   264   8 O        0.858    -0.492    23.615     6.515
   265   7 N        2.690    -0.214    25.654     7.523
   266   6 C        2.763     0.279    22.275     7.729
   267   8 O        0.859    -0.454    22.793     6.401
   268   6 C        2.953    -0.036    28.905     8.818
   269   6 C        3.753    -0.126    22.983     6.836
   270   6 C        2.860     0.018    27.612     8.613
   271   1 H        0.924     0.089     1.887     2.148
   272   1 H        0.924     0.085     1.930     2.173
   273   1 H        0.923     0.091     1.866     2.136
   274   1 H        0.924     0.075     2.032     2.229
   275   1 H        0.924     0.095     1.835     2.119
   276   1 H        0.924     0.075     2.026     2.226
   277   1 H        0.924     0.075     2.030     2.228
   278   1 H        0.854     0.236     0.940     1.519
   279   1 H        0.924     0.065     2.147     2.291
   280   1 H        0.924     0.090     1.877     2.143
   281   1 H        0.924     0.076     2.026     2.226
   282   1 H        0.925     0.105     1.737     2.061
   283  15 P        3.758     0.735   131.511    20.600
   284   8 O        1.614    -0.383    20.542     6.117
   285   8 O        0.808    -0.586    25.812     6.810
   286   8 O        1.657    -0.330    19.545     5.968
   287   6 C        3.909     0.053    19.634     6.298
   288   6 C        3.769     0.092    19.088     6.226
   289   8 O        1.701    -0.313    19.225     5.920
   290   6 C        3.934     0.109    18.731     6.151
   291   8 O        1.657    -0.326    19.460     5.955
   292   6 C        3.815    -0.096    22.321     6.724
   293   6 C        3.703     0.172    17.987     6.064
   294   7 N        2.831    -0.070    22.599     7.061
   295   6 C        3.214     0.098    25.205     8.169
   296   7 N        1.874    -0.294    28.475     7.910
   297   6 C        3.262     0.018    26.427     8.303
   298   6 C        2.889     0.178    24.182     8.062
   299   7 N        2.648    -0.259    26.721     7.677
   300   7 N        1.844    -0.312    28.936     7.972
   301   6 C        2.927     0.157    24.610     8.136
   302   7 N        1.827    -0.329    29.369     8.030
   303   6 C        3.168     0.148    24.469     8.082
   304   1 H        0.924     0.094     1.840     2.121
   305   1 H        0.924     0.078     2.000     2.211
   306   1 H        0.924     0.099     1.793     2.094
   307   1 H        0.924     0.072     2.060     2.244
   308   1 H        0.924     0.075     2.035     2.231
   309   1 H        0.925     0.084     1.942     2.179
   310   1 H        0.924     0.072     2.068     2.249
   311   1 H        0.925     0.069     2.092     2.262
   312   1 H        0.860     0.232     0.956     1.532
   313   1 H        0.860     0.229     0.970     1.543
   314   1 H        0.925     0.038     2.479     2.462
   315  15 P        3.776     0.731   131.637    20.610
   316   8 O        1.614    -0.375    20.385     6.094
   317   8 O        0.808    -0.575    25.535     6.774
   318   8 O        1.658    -0.334    19.606     5.977
   319   6 C        3.923     0.057    19.561     6.286
   320   6 C        3.813     0.088    19.109     6.222
   321   8 O        1.702    -0.316    19.271     5.927
   322   6 C        3.936     0.107    18.770     6.157
   323   8 O        1.657    -0.323    19.417     5.948
   324   6 C        3.815    -0.082    22.043     6.682
   325   6 C        3.764     0.177    17.811     6.016
   326   7 N        2.748    -0.083    22.849     7.099
   327   6 C        2.734     0.332    21.354     7.566
   328   8 O        0.860    -0.525    24.352     6.616
   329   7 N        1.849    -0.354    30.068     8.127
   330   6 C        2.860     0.193    23.885     8.011
   331   7 N        2.650    -0.239    26.245     7.609
   332   6 C        2.908    -0.095    30.377     9.037
   333   6 C        2.870     0.038    27.146     8.541
   334   1 H        0.923     0.082     1.962     2.191
   335   1 H        0.924     0.089     1.887     2.148
   336   1 H        0.922     0.078     2.003     2.213
   337   1 H        0.924     0.065     2.142     2.289
   338   1 H        0.924     0.069     2.100     2.266
   339   1 H        0.924     0.072     2.060     2.245
   340   1 H        0.923     0.078     1.999     2.211
   341   1 H        0.858     0.240     0.924     1.506
   342   1 H        0.859     0.237     0.937     1.516
   343   1 H        0.926     0.101     1.773     2.082
   344   1 H        0.925     0.089     1.893     2.152
   345  15 P        3.778     0.734   131.563    20.604
   346   8 O        1.614    -0.385    20.585     6.124
   347   8 O        0.808    -0.593    25.982     6.833
   348   8 O        1.658    -0.325    19.454     5.954
   349   6 C        3.928     0.056    19.577     6.288
   350   6 C        3.764     0.090    19.126     6.234
   351   8 O        1.702    -0.325    19.434     5.952
   352   6 C        3.742     0.107    18.901     6.203
   353   8 O        1.654    -0.476    22.384     6.387
   354   6 C        3.800    -0.088    22.187     6.706
   355   6 C        3.710     0.166    18.050     6.072
   356   7 N        2.820    -0.073    22.645     7.068
   357   6 C        3.138     0.096    25.650     8.289
   358   7 N        1.880    -0.297    28.551     7.921
   359   6 C        3.192    -0.010    27.755     8.591
   360   6 C        2.769     0.261    22.607     7.787
   361   8 O        0.859    -0.506    23.913     6.556
   362   7 N        2.700    -0.205    25.453     7.493
   363   6 C        2.828     0.242    22.962     7.852
   364   7 N        2.651    -0.273    27.054     7.725
   365   7 N        1.842    -0.353    30.020     8.120
   366   6 C        3.099     0.130    25.050     8.202
   367   1 H        0.924     0.073     2.048     2.238
   368   1 H        0.924     0.072     2.063     2.246
   369   1 H        0.924     0.083     1.945     2.181
   370   1 H        0.924     0.049     2.335     2.390
   371   1 H        0.803     0.351     0.587     1.203
   372   1 H        0.924     0.071     2.080     2.255
   373   1 H        0.924     0.098     1.807     2.102
   374   1 H        0.924     0.079     1.988     2.205
   375   1 H        0.925     0.059     2.211     2.325
   376   1 H        0.854     0.235     0.946     1.524
   377   1 H        0.859     0.230     0.964     1.538
   378   1 H        0.859     0.239     0.926     1.508
   379   1 H        0.897     0.439     0.413     1.006
   380   1 H        0.897     0.464     0.377     0.961
   381   1 H        0.897     0.459     0.384     0.969
   382   1 H        0.898     0.463     0.378     0.963
   383   1 H        0.898     0.441     0.409     1.001
   384   1 H        0.898     0.440     0.411     1.003
   385   1 H        0.897     0.439     0.412     1.004
   386   1 H        0.898     0.437     0.416     1.009
   387   1 H        0.898     0.444     0.405     0.996
   388   1 H        0.898     0.452     0.393     0.981

 Mol. C6AA /au·bohr⁶  :    1940689.307172
 Mol. C8AA /au·bohr⁸  :   48041805.085239
 Mol. α(0) /au        :       2107.774058


Wiberg/Mayer (AO) data.
largest (>0.10) Wiberg bond orders for each atom

 ---------------------------------------------------------------------------
     #   Z sym  total        # sym  WBO       # sym  WBO       # sym  WBO
 ---------------------------------------------------------------------------
     1   8 O    1.944 --     2 C    1.007    28 H    0.870
     2   6 C    3.955 --     1 O    1.007     3 C    0.977    17 H    0.968
                            18 H    0.968
     3   6 C    3.940 --     2 C    0.977     5 C    0.963     4 O    0.961
                            19 H    0.956
     4   8 O    2.063 --     8 C    0.971     3 C    0.961
     5   6 C    3.918 --     7 C    0.991    20 H    0.963     3 C    0.963
                             6 O    0.925
     6   8 O    2.263 --    29 P    1.123     5 C    0.925
     7   6 C    3.987 --     5 C    0.991     8 C    0.985    22 H    0.969
                            21 H    0.962
     8   6 C    3.942 --     7 C    0.985     4 O    0.971     9 N    0.959
                            23 H    0.955
     9   7 N    3.594 --    16 C    1.225    10 C    1.077     8 C    0.959
                            11 O    0.109
    10   6 C    3.949 --    11 O    1.541    12 N    1.236     9 N    1.077
    11   8 O    1.936 --    10 C    1.541    12 N    0.124     9 N    0.109
    12   7 N    3.074 --    13 C    1.345    10 C    1.236    11 O    0.124
                            14 N    0.112
    13   6 C    3.965 --    14 N    1.366    12 N    1.345    15 C    1.159
    14   7 N    3.445 --    13 C    1.366    25 H    0.922    24 H    0.881
                            12 N    0.112
    15   6 C    3.971 --    16 C    1.632    13 C    1.159    26 H    0.958
    16   6 C    3.956 --    15 C    1.632     9 N    1.225    27 H    0.947
    17   1 H    0.995 --     2 C    0.968
    18   1 H    0.994 --     2 C    0.968
    19   1 H    0.995 --     3 C    0.956
    20   1 H    0.996 --     5 C    0.963
    21   1 H    0.991 --     7 C    0.962
    22   1 H    0.996 --     7 C    0.969
    23   1 H    0.996 --     8 C    0.955
    24   1 H    0.944 --    14 N    0.881
    25   1 H    0.941 --    14 N    0.922
    26   1 H    0.989 --    15 C    0.958
    27   1 H    0.991 --    16 C    0.947
    28   1 H    0.891 --     1 O    0.870
    29  15 P    5.474 --    31 O    1.768    30 O    1.344    32 O    1.165
                             6 O    1.123
    30   8 O    2.276 --    29 P    1.344   383 H    0.765
    31   8 O    1.971 --    29 P    1.768
    32   8 O    2.284 --    29 P    1.165    33 C    0.929
    33   6 C    3.916 --    34 C    0.983    51 H    0.965    52 H    0.962
                            32 O    0.929
    34   6 C    3.945 --    33 C    0.983    35 O    0.971    36 C    0.967
                            53 H    0.948
    35   8 O    2.086 --    39 C    0.975    34 C    0.971
    36   6 C    3.927 --    38 C    0.995    34 C    0.967    54 H    0.961
                            37 O    0.934
    37   8 O    2.268 --    62 P    1.119    36 C    0.934
    38   6 C    3.987 --    36 C    0.995    39 C    0.988    55 H    0.963
                            56 H    0.961
    39   6 C    3.934 --    38 C    0.988    35 O    0.975    40 N    0.950
                            57 H    0.950
    40   7 N    3.580 --    41 C    1.188    50 C    1.167    39 C    0.950
                            42 N    0.108
    41   6 C    3.946 --    42 N    1.613    40 N    1.188    58 H    0.954
    42   7 N    3.018 --    41 C    1.613    43 C    1.192    40 N    0.108
    43   6 C    3.966 --    50 C    1.347    42 N    1.192    44 C    1.140
    44   6 C    3.950 --    45 O    1.551    43 C    1.140    46 N    1.138
    45   8 O    1.939 --    44 C    1.551    46 N    0.133
    46   7 N    3.511 --    47 C    1.177    44 C    1.138    59 H    0.824
                            45 O    0.133
    47   6 C    3.965 --    49 N    1.374    48 N    1.311    46 N    1.177
    48   7 N    3.376 --    47 C    1.311    61 H    0.925    60 H    0.878
                            49 N    0.104
    49   7 N    2.966 --    47 C    1.374    50 C    1.237    48 N    0.104
    50   6 C    3.960 --    43 C    1.347    49 N    1.237    40 N    1.167
    51   1 H    0.991 --    33 C    0.965
    52   1 H    0.993 --    33 C    0.962
    53   1 H    0.987 --    34 C    0.948
    54   1 H    0.994 --    36 C    0.961
    55   1 H    0.994 --    38 C    0.963
    56   1 H    0.993 --    38 C    0.961
    57   1 H    0.993 --    39 C    0.950
    58   1 H    0.995 --    41 C    0.954
    59   1 H    0.946 --    46 N    0.824
    60   1 H    0.943 --    48 N    0.878
    61   1 H    0.944 --    48 N    0.925
    62  15 P    5.465 --    64 O    1.754    63 O    1.373    65 O    1.151
                            37 O    1.119
    63   8 O    2.282 --    62 P    1.373   382 H    0.749
    64   8 O    1.961 --    62 P    1.754
    65   8 O    2.284 --    62 P    1.151    66 C    0.939
    66   6 C    3.922 --    67 C    0.988    83 H    0.964    82 H    0.960
                            65 O    0.939
    67   6 C    3.947 --    66 C    0.988    68 O    0.971    69 C    0.962
                            84 H    0.946
    68   8 O    2.074 --    67 C    0.971    72 C    0.967
    69   6 C    3.925 --    71 C    0.992    67 C    0.962    85 H    0.961
                            70 O    0.930
    70   8 O    2.267 --    94 P    1.119    69 C    0.930
    71   6 C    3.982 --    69 C    0.992    72 C    0.976    87 H    0.968
                            86 H    0.964
    72   6 C    3.927 --    71 C    0.976    68 O    0.967    73 N    0.960
                            88 H    0.953
    73   7 N    3.577 --    81 C    1.169    74 C    1.116    72 C    0.960
                            75 O    0.128
    74   6 C    3.960 --    75 O    1.597    76 N    1.161    73 N    1.116
    75   8 O    1.940 --    74 C    1.597    76 N    0.135    73 N    0.128
    76   7 N    3.510 --    74 C    1.161    77 C    1.137    89 H    0.810
                            78 O    0.139    75 O    0.135
    77   6 C    3.940 --    78 O    1.623    76 N    1.137    79 C    1.084
    78   8 O    2.001 --    77 C    1.623    76 N    0.139
    79   6 C    3.981 --    81 C    1.650    77 C    1.084    80 C    1.022
    80   6 C    3.983 --    79 C    1.022    92 H    0.980    91 H    0.974
                            90 H    0.960
    81   6 C    3.951 --    79 C    1.650    73 N    1.169    93 H    0.946
    82   1 H    0.992 --    66 C    0.960
    83   1 H    0.991 --    66 C    0.964
    84   1 H    0.992 --    67 C    0.946
    85   1 H    0.994 --    69 C    0.961
    86   1 H    0.989 --    71 C    0.964
    87   1 H    0.993 --    71 C    0.968
    88   1 H    0.994 --    72 C    0.953
    89   1 H    0.944 --    76 N    0.810
    90   1 H    0.990 --    80 C    0.960
    91   1 H    0.994 --    80 C    0.974
    92   1 H    0.995 --    80 C    0.980
    93   1 H    0.988 --    81 C    0.946
    94  15 P    5.429 --    95 O    1.733    96 O    1.353    97 O    1.143
                            70 O    1.119
    95   8 O    1.945 --    94 P    1.733
    96   8 O    2.265 --    94 P    1.353   381 H    0.754
    97   8 O    2.277 --    94 P    1.143    98 C    0.939
    98   6 C    3.920 --    99 C    0.987   115 H    0.967   116 H    0.965
                            97 O    0.939
    99   6 C    3.945 --    98 C    0.987   101 C    0.967   100 O    0.967
                           117 H    0.950
   100   8 O    2.077 --   104 C    0.974    99 C    0.967
   101   6 C    3.928 --   103 C    0.992    99 C    0.967   118 H    0.962
                           102 O    0.938
   102   8 O    2.267 --   126 P    1.115   101 C    0.938
   103   6 C    3.986 --   101 C    0.992   104 C    0.984   119 H    0.966
                           120 H    0.960
   104   6 C    3.935 --   103 C    0.984   100 O    0.974   105 N    0.957
                           121 H    0.954
   105   7 N    3.594 --   106 C    1.209   114 C    1.158   104 C    0.957
                           107 N    0.114
   106   6 C    3.948 --   107 N    1.600   105 N    1.209   122 H    0.952
   107   7 N    3.005 --   106 C    1.600   108 C    1.185   105 N    0.114
   108   6 C    3.973 --   114 C    1.330   109 C    1.199   107 N    1.185
   109   6 C    3.970 --   110 N    1.330   111 N    1.298   108 C    1.199
   110   7 N    3.417 --   109 C    1.330   124 H    0.925   123 H    0.882
   111   7 N    3.117 --   112 C    1.395   109 C    1.298
   112   6 C    3.969 --   113 N    1.468   111 N    1.395   125 H    0.957
   113   7 N    3.008 --   112 C    1.468   114 C    1.260
   114   6 C    3.960 --   108 C    1.330   113 N    1.260   105 N    1.158
   115   1 H    0.993 --    98 C    0.967
   116   1 H    0.993 --    98 C    0.965
   117   1 H    0.990 --    99 C    0.950
   118   1 H    0.995 --   101 C    0.962
   119   1 H    0.994 --   103 C    0.966
   120   1 H    0.993 --   103 C    0.960
   121   1 H    0.995 --   104 C    0.954
   122   1 H    0.994 --   106 C    0.952
   123   1 H    0.947 --   110 N    0.882
   124   1 H    0.946 --   110 N    0.925
   125   1 H    0.998 --   112 C    0.957
   126  15 P    5.461 --   128 O    1.752   127 O    1.375   129 O    1.148
                           102 O    1.115
   127   8 O    2.283 --   126 P    1.375   380 H    0.750
   128   8 O    1.958 --   126 P    1.752
   129   8 O    2.289 --   126 P    1.148   130 C    0.941
   130   6 C    3.925 --   131 C    0.978   145 H    0.967   146 H    0.962
                           129 O    0.941
   131   6 C    3.936 --   130 C    0.978   132 O    0.969   133 C    0.964
                           147 H    0.944
   132   8 O    2.077 --   136 C    0.970   131 C    0.969
   133   6 C    3.932 --   135 C    0.985   131 C    0.964   148 H    0.957
                           134 O    0.939
   134   8 O    2.271 --   156 P    1.113   133 C    0.939
   135   6 C    3.986 --   133 C    0.985   136 C    0.976   150 H    0.973
                           149 H    0.969
   136   6 C    3.932 --   135 C    0.976   132 O    0.970   137 N    0.961
                           151 H    0.954
   137   7 N    3.580 --   144 C    1.204   138 C    1.083   136 C    0.961
                           139 O    0.112
   138   6 C    3.952 --   139 O    1.535   140 N    1.239   137 N    1.083
   139   8 O    1.928 --   138 C    1.535   140 N    0.124   137 N    0.112
   140   7 N    3.085 --   141 C    1.341   138 C    1.239   139 O    0.124
                           142 N    0.112
   141   6 C    3.965 --   142 N    1.377   140 N    1.341   143 C    1.153
   142   7 N    3.454 --   141 C    1.377   153 H    0.921   152 H    0.878
                           140 N    0.112
   143   6 C    3.974 --   144 C    1.649   141 C    1.153   154 H    0.957
   144   6 C    3.955 --   143 C    1.649   137 N    1.204   155 H    0.953
   145   1 H    0.993 --   130 C    0.967
   146   1 H    0.991 --   130 C    0.962
   147   1 H    0.993 --   131 C    0.944
   148   1 H    0.995 --   133 C    0.957
   149   1 H    0.994 --   135 C    0.969
   150   1 H    0.994 --   135 C    0.973
   151   1 H    0.994 --   136 C    0.954
   152   1 H    0.942 --   142 N    0.878
   153   1 H    0.943 --   142 N    0.921
   154   1 H    0.988 --   143 C    0.957
   155   1 H    0.991 --   144 C    0.953
   156  15 P    5.437 --   157 O    1.738   158 O    1.337   159 O    1.164
                           134 O    1.113
   157   8 O    1.950 --   156 P    1.738
   158   8 O    2.267 --   156 P    1.337   379 H    0.767
   159   8 O    2.289 --   156 P    1.164   160 C    0.930
   160   6 C    3.914 --   161 C    0.983   178 H    0.969   179 H    0.965
                           159 O    0.930
   161   6 C    3.943 --   160 C    0.983   162 O    0.970   163 C    0.962
                           180 H    0.950
   162   8 O    2.082 --   166 C    0.972   161 C    0.970
   163   6 C    3.961 --   164 O    1.007   165 C    0.983   181 H    0.963
                           161 C    0.962
   164   8 O    1.946 --   163 C    1.007   182 H    0.866
   165   6 C    3.985 --   163 C    0.983   166 C    0.983   183 H    0.971
                           184 H    0.970
   166   6 C    3.925 --   165 C    0.983   162 O    0.972   185 H    0.954
                           167 N    0.949
   167   7 N    3.586 --   168 C    1.190   177 C    1.172   166 C    0.949
                           169 N    0.110
   168   6 C    3.944 --   169 N    1.613   167 N    1.190   186 H    0.958
   169   7 N    3.013 --   168 C    1.613   170 C    1.190   167 N    0.110
   170   6 C    3.963 --   177 C    1.344   169 N    1.190   171 C    1.140
   171   6 C    3.950 --   172 O    1.557   170 C    1.140   173 N    1.134
   172   8 O    1.951 --   171 C    1.557   173 N    0.135
   173   7 N    3.510 --   174 C    1.174   171 C    1.134   187 H    0.837
                           172 O    0.135
   174   6 C    3.965 --   176 N    1.371   175 N    1.322   173 N    1.174
   175   7 N    3.390 --   174 C    1.322   189 H    0.922   188 H    0.879
                           176 N    0.105
   176   7 N    2.969 --   174 C    1.371   177 C    1.240   175 N    0.105
   177   6 C    3.961 --   170 C    1.344   176 N    1.240   167 N    1.172
   178   1 H    0.996 --   160 C    0.969
   179   1 H    0.994 --   160 C    0.965
   180   1 H    0.993 --   161 C    0.950
   181   1 H    0.995 --   163 C    0.963
   182   1 H    0.883 --   164 O    0.866
   183   1 H    0.995 --   165 C    0.971
   184   1 H    0.991 --   165 C    0.970
   185   1 H    0.994 --   166 C    0.954
   186   1 H    0.995 --   168 C    0.958
   187   1 H    0.945 --   173 N    0.837
   188   1 H    0.947 --   175 N    0.879
   189   1 H    0.942 --   175 N    0.922
   190   8 O    1.916 --   191 C    1.003   217 H    0.858
   191   6 C    3.960 --   190 O    1.003   192 C    0.985   207 H    0.968
                           206 H    0.967
   192   6 C    3.944 --   191 C    0.985   193 O    0.965   194 C    0.962
                           208 H    0.956
   193   8 O    2.068 --   197 C    0.973   192 C    0.965
   194   6 C    3.916 --   196 C    0.992   209 H    0.962   192 C    0.962
                           195 O    0.923
   195   8 O    2.259 --   218 P    1.118   194 C    0.923
   196   6 C    3.986 --   194 C    0.992   197 C    0.984   211 H    0.969
                           210 H    0.962
   197   6 C    3.944 --   196 C    0.984   193 O    0.973   198 N    0.959
                           212 H    0.956
   198   7 N    3.596 --   205 C    1.228   199 C    1.080   197 C    0.959
                           200 O    0.109
   199   6 C    3.948 --   200 O    1.536   201 N    1.236   198 N    1.080
   200   8 O    1.931 --   199 C    1.536   201 N    0.124   198 N    0.109
   201   7 N    3.069 --   202 C    1.344   199 C    1.236   200 O    0.124
                           203 N    0.109
   202   6 C    3.966 --   203 N    1.360   201 N    1.344   204 C    1.166
   203   7 N    3.436 --   202 C    1.360   214 H    0.923   213 H    0.879
                           201 N    0.109
   204   6 C    3.970 --   205 C    1.626   202 C    1.166   215 H    0.959
   205   6 C    3.950 --   204 C    1.626   198 N    1.228   216 H    0.950
   206   1 H    0.995 --   191 C    0.967
   207   1 H    0.997 --   191 C    0.968
   208   1 H    0.995 --   192 C    0.956
   209   1 H    0.996 --   194 C    0.962
   210   1 H    0.990 --   196 C    0.962
   211   1 H    0.996 --   196 C    0.969
   212   1 H    0.997 --   197 C    0.956
   213   1 H    0.944 --   203 N    0.879
   214   1 H    0.941 --   203 N    0.923
   215   1 H    0.989 --   204 C    0.959
   216   1 H    0.988 --   205 C    0.950
   217   1 H    0.871 --   190 O    0.858
   218  15 P    5.466 --   220 O    1.738   219 O    1.337   221 O    1.199
                           195 O    1.118
   219   8 O    2.265 --   218 P    1.337   388 H    0.759
   220   8 O    1.947 --   218 P    1.738
   221   8 O    2.307 --   218 P    1.199   222 C    0.929
   222   6 C    3.915 --   223 C    0.983   240 H    0.967   241 H    0.966
                           221 O    0.929
   223   6 C    3.946 --   222 C    0.983   224 O    0.972   225 C    0.967
                           242 H    0.949
   224   8 O    2.086 --   228 C    0.975   223 C    0.972
   225   6 C    3.927 --   227 C    0.995   223 C    0.967   243 H    0.961
                           226 O    0.932
   226   8 O    2.273 --   251 P    1.126   225 C    0.932
   227   6 C    3.987 --   225 C    0.995   228 C    0.988   244 H    0.963
                           245 H    0.962
   228   6 C    3.934 --   227 C    0.988   224 O    0.975   229 N    0.952
                           246 H    0.949
   229   7 N    3.580 --   230 C    1.188   239 C    1.166   228 C    0.952
                           231 N    0.108
   230   6 C    3.946 --   231 N    1.614   229 N    1.188   247 H    0.953
   231   7 N    3.018 --   230 C    1.614   232 C    1.191   229 N    0.108
   232   6 C    3.965 --   239 C    1.347   231 N    1.191   233 C    1.141
   233   6 C    3.951 --   234 O    1.551   232 C    1.141   235 N    1.138
   234   8 O    1.939 --   233 C    1.551   235 N    0.133
   235   7 N    3.512 --   236 C    1.177   233 C    1.138   248 H    0.827
                           234 O    0.133
   236   6 C    3.965 --   238 N    1.375   237 N    1.311   235 N    1.177
   237   7 N    3.375 --   236 C    1.311   250 H    0.925   249 H    0.879
                           238 N    0.104
   238   7 N    2.966 --   236 C    1.375   239 C    1.237   237 N    0.104
   239   6 C    3.959 --   232 C    1.347   238 N    1.237   229 N    1.166
   240   1 H    0.992 --   222 C    0.967
   241   1 H    0.993 --   222 C    0.966
   242   1 H    0.988 --   223 C    0.949
   243   1 H    0.995 --   225 C    0.961
   244   1 H    0.994 --   227 C    0.963
   245   1 H    0.993 --   227 C    0.962
   246   1 H    0.993 --   228 C    0.949
   247   1 H    0.995 --   230 C    0.953
   248   1 H    0.945 --   235 N    0.827
   249   1 H    0.943 --   237 N    0.879
   250   1 H    0.944 --   237 N    0.925
   251  15 P    5.472 --   253 O    1.781   252 O    1.378   226 O    1.126
                           254 O    1.115
   252   8 O    2.299 --   251 P    1.378   387 H    0.762
   253   8 O    1.982 --   251 P    1.781
   254   8 O    2.258 --   251 P    1.115   255 C    0.939
   255   6 C    3.924 --   256 C    0.988   272 H    0.960   271 H    0.958
                           254 O    0.939
   256   6 C    3.947 --   255 C    0.988   257 O    0.972   258 C    0.962
                           273 H    0.945
   257   8 O    2.074 --   256 C    0.972   261 C    0.967
   258   6 C    3.924 --   260 C    0.994   256 C    0.962   274 H    0.962
                           259 O    0.931
   259   8 O    2.277 --   283 P    1.129   258 C    0.931
   260   6 C    3.983 --   258 C    0.994   261 C    0.977   276 H    0.969
                           275 H    0.964
   261   6 C    3.928 --   260 C    0.977   257 O    0.967   262 N    0.960
                           277 H    0.952
   262   7 N    3.578 --   270 C    1.170   263 C    1.116   261 C    0.960
                           264 O    0.128
   263   6 C    3.960 --   264 O    1.598   265 N    1.159   262 N    1.116
   264   8 O    1.942 --   263 C    1.598   265 N    0.135   262 N    0.128
   265   7 N    3.510 --   263 C    1.159   266 C    1.135   278 H    0.818
                           267 O    0.139   264 O    0.135
   266   6 C    3.941 --   267 O    1.624   265 N    1.135   268 C    1.085
   267   8 O    2.009 --   266 C    1.624   265 N    0.139
   268   6 C    3.981 --   270 C    1.648   266 C    1.085   269 C    1.022
   269   6 C    3.983 --   268 C    1.022   279 H    0.980   281 H    0.974
                           280 H    0.960
   270   6 C    3.951 --   268 C    1.648   262 N    1.170   282 H    0.947
   271   1 H    0.991 --   255 C    0.958
   272   1 H    0.992 --   255 C    0.960
   273   1 H    0.991 --   256 C    0.945
   274   1 H    0.994 --   258 C    0.962
   275   1 H    0.991 --   260 C    0.964
   276   1 H    0.994 --   260 C    0.969
   277   1 H    0.994 --   261 C    0.952
   278   1 H    0.943 --   265 N    0.818
   279   1 H    0.995 --   269 C    0.980
   280   1 H    0.990 --   269 C    0.960
   281   1 H    0.993 --   269 C    0.974
   282   1 H    0.989 --   270 C    0.947
   283  15 P    5.468 --   285 O    1.771   284 O    1.358   286 O    1.140
                           259 O    1.129
   284   8 O    2.288 --   283 P    1.358   386 H    0.764
   285   8 O    1.973 --   283 P    1.771
   286   8 O    2.270 --   283 P    1.140   287 C    0.937
   287   6 C    3.923 --   288 C    0.986   304 H    0.964   305 H    0.959
                           286 O    0.937
   288   6 C    3.944 --   287 C    0.986   289 O    0.968   290 C    0.967
                           306 H    0.949
   289   8 O    2.079 --   293 C    0.975   288 C    0.968
   290   6 C    3.927 --   292 C    0.992   288 C    0.967   307 H    0.961
                           291 O    0.935
   291   8 O    2.274 --   315 P    1.125   290 C    0.935
   292   6 C    3.986 --   290 C    0.992   293 C    0.984   308 H    0.966
                           309 H    0.961
   293   6 C    3.936 --   292 C    0.984   289 O    0.975   294 N    0.956
                           310 H    0.954
   294   7 N    3.594 --   295 C    1.211   303 C    1.156   293 C    0.956
                           296 N    0.114
   295   6 C    3.952 --   296 N    1.599   294 N    1.211   311 H    0.954
   296   7 N    3.004 --   295 C    1.599   297 C    1.185   294 N    0.114
   297   6 C    3.973 --   303 C    1.330   298 C    1.198   296 N    1.185
   298   6 C    3.971 --   299 N    1.333   300 N    1.298   297 C    1.198
   299   7 N    3.428 --   298 C    1.333   313 H    0.929   312 H    0.887
   300   7 N    3.125 --   301 C    1.393   298 C    1.298
   301   6 C    3.968 --   302 N    1.470   300 N    1.393   314 H    0.956
   302   7 N    3.009 --   301 C    1.470   303 C    1.261
   303   6 C    3.960 --   297 C    1.330   302 N    1.261   294 N    1.156
   304   1 H    0.991 --   287 C    0.964
   305   1 H    0.994 --   287 C    0.959
   306   1 H    0.989 --   288 C    0.949
   307   1 H    0.995 --   290 C    0.961
   308   1 H    0.994 --   292 C    0.966
   309   1 H    0.993 --   292 C    0.961
   310   1 H    0.995 --   293 C    0.954
   311   1 H    0.994 --   295 C    0.954
   312   1 H    0.946 --   299 N    0.887
   313   1 H    0.948 --   299 N    0.929
   314   1 H    0.998 --   301 C    0.956
   315  15 P    5.473 --   317 O    1.784   316 O    1.377   291 O    1.125
                           318 O    1.115
   316   8 O    2.300 --   315 P    1.377   385 H    0.766
   317   8 O    1.986 --   315 P    1.784
   318   8 O    2.263 --   315 P    1.115   319 C    0.942
   319   6 C    3.928 --   320 C    0.979   334 H    0.963   335 H    0.962
                           318 O    0.942
   320   6 C    3.939 --   319 C    0.979   321 O    0.970   322 C    0.965
                           336 H    0.944
   321   8 O    2.078 --   325 C    0.970   320 C    0.970
   322   6 C    3.930 --   324 C    0.985   320 C    0.965   337 H    0.960
                           323 O    0.942
   323   8 O    2.283 --   345 P    1.123   322 C    0.942
   324   6 C    3.987 --   322 C    0.985   325 C    0.977   339 H    0.973
                           338 H    0.970
   325   6 C    3.931 --   324 C    0.977   321 O    0.970   326 N    0.960
                           340 H    0.953
   326   7 N    3.580 --   333 C    1.205   327 C    1.084   325 C    0.960
                           328 O    0.112
   327   6 C    3.952 --   328 O    1.536   329 N    1.237   326 N    1.084
   328   8 O    1.930 --   327 C    1.536   329 N    0.124   326 N    0.112
   329   7 N    3.089 --   330 C    1.343   327 C    1.237   328 O    0.124
                           331 N    0.111
   330   6 C    3.966 --   331 N    1.372   329 N    1.343   332 C    1.155
   331   7 N    3.447 --   330 C    1.372   342 H    0.922   341 H    0.878
                           329 N    0.111
   332   6 C    3.975 --   333 C    1.648   330 C    1.155   343 H    0.958
   333   6 C    3.957 --   332 C    1.648   326 N    1.205   344 H    0.953
   334   1 H    0.993 --   319 C    0.963
   335   1 H    0.992 --   319 C    0.962
   336   1 H    0.993 --   320 C    0.944
   337   1 H    0.995 --   322 C    0.960
   338   1 H    0.995 --   324 C    0.970
   339   1 H    0.995 --   324 C    0.973
   340   1 H    0.993 --   325 C    0.953
   341   1 H    0.942 --   331 N    0.878
   342   1 H    0.943 --   331 N    0.922
   343   1 H    0.989 --   332 C    0.958
   344   1 H    0.991 --   333 C    0.953
   345  15 P    5.467 --   347 O    1.759   346 O    1.360   348 O    1.151
                           323 O    1.123
   346   8 O    2.283 --   345 P    1.360   384 H    0.761
   347   8 O    1.968 --   345 P    1.759
   348   8 O    2.278 --   345 P    1.151   349 C    0.930
   349   6 C    3.919 --   350 C    0.982   367 H    0.967   368 H    0.959
                           348 O    0.930
   350   6 C    3.942 --   349 C    0.982   351 O    0.971   352 C    0.962
                           369 H    0.949
   351   8 O    2.084 --   355 C    0.973   350 C    0.971
   352   6 C    3.963 --   353 O    1.001   354 C    0.991   370 H    0.963
                           350 C    0.962
   353   8 O    1.931 --   352 C    1.001   371 H    0.861
   354   6 C    3.985 --   352 C    0.991   355 C    0.983   372 H    0.971
                           373 H    0.969
   355   6 C    3.924 --   354 C    0.983   351 O    0.973   374 H    0.954
                           356 N    0.947
   356   7 N    3.585 --   357 C    1.192   366 C    1.172   355 C    0.947
                           358 N    0.110
   357   6 C    3.946 --   358 N    1.613   356 N    1.192   375 H    0.958
   358   7 N    3.012 --   357 C    1.613   359 C    1.189   356 N    0.110
   359   6 C    3.962 --   366 C    1.345   358 N    1.189   360 C    1.141
   360   6 C    3.951 --   361 O    1.556   359 C    1.141   362 N    1.136
   361   8 O    1.947 --   360 C    1.556   362 N    0.136
   362   7 N    3.509 --   363 C    1.173   360 C    1.136   376 H    0.835
                           361 O    0.136
   363   6 C    3.965 --   365 N    1.373   364 N    1.320   362 N    1.173
   364   7 N    3.388 --   363 C    1.320   378 H    0.922   377 H    0.878
                           365 N    0.105
   365   7 N    2.969 --   363 C    1.373   366 C    1.239   364 N    0.105
   366   6 C    3.961 --   359 C    1.345   365 N    1.239   356 N    1.172
   367   1 H    0.994 --   349 C    0.967
   368   1 H    0.995 --   349 C    0.959
   369   1 H    0.992 --   350 C    0.949
   370   1 H    0.997 --   352 C    0.963
   371   1 H    0.877 --   353 O    0.861
   372   1 H    0.995 --   354 C    0.971
   373   1 H    0.990 --   354 C    0.969
   374   1 H    0.994 --   355 C    0.954
   375   1 H    0.996 --   357 C    0.958
   376   1 H    0.944 --   362 N    0.835
   377   1 H    0.946 --   364 N    0.878
   378   1 H    0.942 --   364 N    0.922
   379   1 H    0.807 --   158 O    0.767
   380   1 H    0.785 --   127 O    0.750
   381   1 H    0.789 --    96 O    0.754
   382   1 H    0.785 --    63 O    0.749
   383   1 H    0.805 --    30 O    0.765
   384   1 H    0.806 --   346 O    0.761
   385   1 H    0.807 --   316 O    0.766
   386   1 H    0.809 --   284 O    0.764
   387   1 H    0.803 --   252 O    0.762
   388   1 H    0.795 --   219 O    0.759
 ---------------------------------------------------------------------------

Topologies differ in total number of bonds
Writing topology from bond orders to xtbtopo.mol

molecular dipole:
                 x           y           z       tot (Debye)
 q only:        5.246       1.105       5.161
   full:        5.571       2.069       5.569      20.702
molecular quadrupole (traceless):
                xx          xy          yy          xz          yz          zz
 q only:       85.704     -13.821    -111.970     -82.079      47.974      26.266
  q+dip:       72.098      -3.746    -112.251    -104.993      60.707      40.153
   full:       69.793      -4.725    -119.689    -117.278      62.273      49.895


           -------------------------------------------------
          | TOTAL ENERGY             -762.678672558050 Eh   |
          | GRADIENT NORM               0.493592784982 Eh/α |
          | HOMO-LUMO GAP               2.486939679592 eV   |
           -------------------------------------------------
########################################################################
[WARNING] Runtime exception occurred
-2- restart_readRestart: Dimension missmatch in restart file.
-1- restart_readRestart: Number of electron missmatch in restart file.
########################################################################

------------------------------------------------------------------------
 * finished run on 2023/03/09 at 13:52:08.204     
------------------------------------------------------------------------
 total:
 * wall-time:     0 d,  0 h,  0 min,  3.249 sec
 *  cpu-time:     0 d,  0 h,  0 min, 31.470 sec
 * ratio c/w:     9.687 speedup
 SCF:
 * wall-time:     0 d,  0 h,  0 min,  2.921 sec
 *  cpu-time:     0 d,  0 h,  0 min, 28.717 sec
 * ratio c/w:     9.831 speedup

