      -----------------------------------------------------------      
     |                   =====================                   |     
     |                           x T B                           |     
     |                   =====================                   |     
     |                         S. Grimme                         |     
     |          Mulliken Center for Theoretical Chemistry        |     
     |                    University of Bonn                     |     
      -----------------------------------------------------------      

   * xtb version 6.5.1 (579679a) compiled by 'ehlert@majestix' on 2022-07-11

   xtb is free software: you can redistribute it and/or modify it under
   the terms of the GNU Lesser General Public License as published by
   the Free Software Foundation, either version 3 of the License, or
   (at your option) any later version.
   
   xtb is distributed in the hope that it will be useful,
   but WITHOUT ANY WARRANTY; without even the implied warranty of
   MERCHANTABILITY or FITNESS FOR A PARTICULAR PURPOSE.  See the
   GNU Lesser General Public License for more details.
   
   Cite this work as:
   * C. Bannwarth, E. Caldeweyher, S. Ehlert, A. Hansen, P. Pracht,
     J. Seibert, S. Spicher, S. Grimme, WIREs Comput. Mol. Sci., 2020, 11,
     e01493. DOI: 10.1002/wcms.1493
   
   for GFN2-xTB:
   * C. Bannwarth, S. Ehlert and S. Grimme., J. Chem. Theory Comput., 2019,
     15, 1652-1671. DOI: 10.1021/acs.jctc.8b01176
   for GFN1-xTB:
   * S. Grimme, C. Bannwarth, P. Shushkov, J. Chem. Theory Comput., 2017,
     13, 1989-2009. DOI: 10.1021/acs.jctc.7b00118
   for GFN0-xTB:
   * P. Pracht, E. Caldeweyher, S. Ehlert, S. Grimme, ChemRxiv, 2019, preprint.
     DOI: 10.26434/chemrxiv.8326202.v1
   for GFN-FF:
   * S. Spicher and S. Grimme, Angew. Chem. Int. Ed., 2020, 59, 15665-15673.
     DOI: 10.1002/anie.202004239
   
   for ALPB and GBSA implicit solvation:
   * S. Ehlert, M. Stahn, S. Spicher, S. Grimme, J. Chem. Theory Comput.,
     2021, 17, 4250-4261. DOI: 10.1021/acs.jctc.1c00471
   
   for DFT-D4:
   * E. Caldeweyher, C. Bannwarth and S. Grimme, J. Chem. Phys., 2017,
     147, 034112. DOI: 10.1063/1.4993215
   * E. Caldeweyher, S. Ehlert, A. Hansen, H. Neugebauer, S. Spicher,
     C. Bannwarth and S. Grimme, J. Chem. Phys., 2019, 150, 154122.
     DOI: 10.1063/1.5090222
   * E. Caldeweyher, J.-M. Mewes, S. Ehlert and S. Grimme, Phys. Chem. Chem. Phys.
     2020, 22, 8499-8512. DOI: 10.1039/D0CP00502A
   
   for sTDA-xTB:
   * S. Grimme and C. Bannwarth, J. Chem. Phys., 2016, 145, 054103.
     DOI: 10.1063/1.4959605
   
   in the mass-spec context:
   * V. Asgeirsson, C. Bauer and S. Grimme, Chem. Sci., 2017, 8, 4879.
     DOI: 10.1039/c7sc00601b
   * J. Koopman and S. Grimme, ACS Omega 2019, 4, 12, 15120-15133.
     DOI: 10.1021/acsomega.9b02011
   
   for metadynamics refer to:
   * S. Grimme, J. Chem. Theory Comput., 2019, 155, 2847-2862
     DOI: 10.1021/acs.jctc.9b00143
   
   for SPH calculations refer to:
   * S. Spicher and S. Grimme, J. Chem. Theory Comput., 2021, 17, 1701-1714
     DOI: 10.1021/acs.jctc.0c01306
   
   with help from (in alphabetical order)
   P. Atkinson, C. Bannwarth, F. Bohle, G. Brandenburg, E. Caldeweyher
   M. Checinski, S. Dohm, S. Ehlert, S. Ehrlich, I. Gerasimov, C. Hölzer
   A. Katbashev, J. Koopman, C. Lavigne, S. Lehtola, F. März, M. Müller,
   F. Musil, H. Neugebauer, J. Pisarek, C. Plett, P. Pracht, F. Pultar,
   J. Seibert, P. Shushkov, S. Spicher, M. Stahn, M. Steiner, T. Strunk,
   J. Stückrath, T. Rose, and J. Unsleber
   
 * started run on 2023/03/09 at 13:52:03.589     

           -------------------------------------------------
          |                Calculation Setup                |
           -------------------------------------------------

          program call               : /N/u/schandy/BigRed3/bin/xtb-6.5.1/bin/xtb 1kr8.xyz --alpb water
          hostname                   : nid00057
          coordinate file            : 1kr8.xyz
          omp threads                :                    10

   ID    Z sym.   atoms
    1    8 O      1, 4, 6, 14, 33-35, 38, 40, 45, 63-65, 68, 70, 78, 96-98,
                  101, 103, 128-130, 133, 135, 160-162, 165, 167, 175,
                  193-195, 198, 200, 205
    2    6 C      2, 3, 5, 7, 8, 10, 12, 13, 16, 19, 36, 37, 39, 41, 42, 44,
                  47, 49, 50, 66, 67, 69, 71, 72, 74, 76, 77, 80, 83, 99,
                  100, 102, 104, 105, 107, 109, 110, 113, 115, 131, 132, 134,
                  136, 137, 139, 141, 142, 145, 147, 163, 164, 166, 168, 169,
                  171, 173, 174, 177, 180, 196, 197, 199, 201, 202, 204, 207,
                  209, 210
    3    7 N      9, 11, 15, 17, 18, 43, 46, 48, 73, 75, 79, 81, 82, 106,
                  108, 111, 112, 114, 138, 140, 143, 144, 146, 170, 172, 176,
                  178, 179, 203, 206, 208
    4    1 H      20-31, 51-61, 84-94, 116-126, 148-158, 181-191, 211-228
    5   15 P      32, 62, 95, 127, 159, 192

           -------------------------------------------------
          |                 G F N 2 - x T B                 |
           -------------------------------------------------

        Reference                      10.1021/acs.jctc.8b01176
      * Hamiltonian:
        H0-scaling (s, p, d)           1.850000    2.230000    2.230000
        zeta-weighting                 0.500000
      * Dispersion:
        s8                             2.700000
        a1                             0.520000
        a2                             5.000000
        s9                             5.000000
      * Repulsion:
        kExp                           1.500000    1.000000
        rExp                           1.000000
      * Coulomb:
        alpha                          2.000000
        third order                    shell-resolved
        anisotropic                    true
        a3                             3.000000
        a5                             4.000000
        cn-shift                       1.200000
        cn-exp                         4.000000
        max-rad                        5.000000

      * Solvation model:               ALPB
        Solvent                        water
        Parameter file                 internal GFN2-xTB/ALPB
        Dielectric constant                8.0200E+01
        Reference state                gsolv [1 M gas/solution]
        Free energy shift                  1.0808E-03 Eh       6.7819E-01 kcal/mol
        Temperature                        2.9815E+02 K
        Density                            1.0000E+00 kg/L
        Solvent mass                       1.8000E+01 g/mol
        Interaction kernel             P16
        Born radius scaling (c1)           1.4744E+00
        Born radii integrator          GBOBC
        Born offset                        0.0000E+00 a0       0.0000E+00 AA
        H-bond correction              true
        Ion screening                  false
        Surface tension                    1.0000E-05 Eh       1.5569E+01 dyn/cm
        Grid points                               230 per atom

          ...................................................
          :                      SETUP                      :
          :.................................................:
          :  # basis functions                 693          :
          :  # atomic orbitals                 687          :
          :  # shells                          377          :
          :  # electrons                       770          :
          :  max. iterations                   250          :
          :  Hamiltonian                  GFN2-xTB          :
          :  restarted?                      false          :
          :  GBSA solvation                   true          :
          :  PC potential                    false          :
          :  electronic temp.          300.0000000     K    :
          :  accuracy                    1.0000000          :
          :  -> integral cutoff          0.2500000E+02      :
          :  -> integral neglect         0.1000000E-07      :
          :  -> SCF convergence          0.1000000E-05 Eh   :
          :  -> wf. convergence          0.1000000E-03 e    :
          :  Broyden damping             0.4000000          :
          ...................................................

 iter      E             dE          RMSdq      gap      omega  full diag
   1   -454.0378888 -0.454038E+03  0.576E+00    2.93       0.0  T
   2   -455.1056939 -0.106781E+01  0.331E+00    2.75       1.0  T
   3   -455.1945155 -0.888216E-01  0.138E+00    2.88       1.0  T
   4   -455.2803645 -0.858490E-01  0.561E-01    2.66       1.0  T
   5   -455.2996064 -0.192419E-01  0.279E-01    2.77       1.0  T
   6   -455.3034459 -0.383944E-02  0.124E-01    2.71       1.0  T
   7   -455.3044365 -0.990626E-03  0.609E-02    2.73       1.0  T
   8   -455.3045228 -0.862844E-04  0.301E-02    2.72       1.0  T
   9   -455.3045580 -0.352441E-04  0.117E-02    2.73       1.0  T
  10   -455.3045694 -0.113717E-04  0.495E-03    2.72       1.3  T
  11   -455.3045701 -0.665769E-06  0.232E-03    2.72       2.9  T
  12   -455.3045704 -0.351829E-06  0.111E-03    2.72       6.0  T
  13   -455.3045705 -0.558252E-07  0.579E-04    2.72      11.4  T
  14   -455.3045705 -0.168349E-07  0.263E-04    2.72      25.2  T

   *** convergence criteria satisfied after 14 iterations ***

         #    Occupation            Energy/Eh            Energy/eV
      -------------------------------------------------------------
         1        2.0000           -0.7751349             -21.0925
       ...           ...                  ...                  ...
       379        2.0000           -0.3846707             -10.4674
       380        2.0000           -0.3812989             -10.3757
       381        2.0000           -0.3802451             -10.3470
       382        2.0000           -0.3757269             -10.2241
       383        2.0000           -0.3738294             -10.1724
       384        2.0000           -0.3723632             -10.1325
       385        2.0000           -0.3695894             -10.0570 (HOMO)
       386                         -0.2695117              -7.3338 (LUMO)
       387                         -0.2679599              -7.2916
       388                         -0.2580969              -7.0232
       389                         -0.2560025              -6.9662
       390                         -0.2516221              -6.8470
       ...                                ...                  ...
       687                          1.3679645              37.2242
      -------------------------------------------------------------
                  HL-Gap            0.1000777 Eh            2.7233 eV
             Fermi-level           -0.3195506 Eh           -8.6954 eV

 SCC (total)                   0 d,  0 h,  0 min,  0.937 sec
 SCC setup                      ...        0 min,  0.009 sec (  0.984%)
 Dispersion                     ...        0 min,  0.015 sec (  1.604%)
 classical contributions        ...        0 min,  0.001 sec (  0.056%)
 integral evaluation            ...        0 min,  0.054 sec (  5.740%)
 iterations                     ...        0 min,  0.685 sec ( 73.126%)
 molecular gradient             ...        0 min,  0.169 sec ( 18.010%)
 printout                       ...        0 min,  0.004 sec (  0.474%)

         :::::::::::::::::::::::::::::::::::::::::::::::::::::
         ::                     SUMMARY                     ::
         :::::::::::::::::::::::::::::::::::::::::::::::::::::
         :: total energy            -450.840888965477 Eh    ::
         :: total w/o Gsasa/hb      -450.761888358774 Eh    ::
         :: gradient norm              0.362535887024 Eh/a0 ::
         :: HOMO-LUMO gap              2.723252408444 eV    ::
         ::.................................................::
         :: SCC energy              -455.304570487067 Eh    ::
         :: -> isotropic ES            1.515776710287 Eh    ::
         :: -> anisotropic ES         -0.087148441875 Eh    ::
         :: -> anisotropic XC          0.098860863085 Eh    ::
         :: -> dispersion             -0.389858365224 Eh    ::
         :: -> Gsolv                  -0.289131604766 Eh    ::
         ::    -> Gelec               -0.210130998063 Eh    ::
         ::    -> Gsasa                0.012783388354 Eh    ::
         ::    -> Ghb                 -0.092864754755 Eh    ::
         ::    -> Gshift               0.001080759698 Eh    ::
         :: repulsion energy           4.430667973098 Eh    ::
         :: add. restraining           0.000000000000 Eh    ::
         :: total charge              -0.000000000000 e     ::
         :::::::::::::::::::::::::::::::::::::::::::::::::::::

           -------------------------------------------------
          |                Property Printout                |
           -------------------------------------------------

    * Orbital Energies and Occupations

         #    Occupation            Energy/Eh            Energy/eV
      -------------------------------------------------------------
         1        2.0000           -0.7751349             -21.0925
       ...           ...                  ...                  ...
       373        2.0000           -0.4048444             -11.0164
       374        2.0000           -0.3998179             -10.8796
       375        2.0000           -0.3972025             -10.8084
       376        2.0000           -0.3929355             -10.6923
       377        2.0000           -0.3890670             -10.5871
       378        2.0000           -0.3848534             -10.4724
       379        2.0000           -0.3846707             -10.4674
       380        2.0000           -0.3812989             -10.3757
       381        2.0000           -0.3802451             -10.3470
       382        2.0000           -0.3757269             -10.2241
       383        2.0000           -0.3738294             -10.1724
       384        2.0000           -0.3723632             -10.1325
       385        2.0000           -0.3695894             -10.0570 (HOMO)
       386                         -0.2695117              -7.3338 (LUMO)
       387                         -0.2679599              -7.2916
       388                         -0.2580969              -7.0232
       389                         -0.2560025              -6.9662
       390                         -0.2516221              -6.8470
       391                         -0.2442147              -6.6454
       392                         -0.2411319              -6.5615
       393                         -0.2360079              -6.4221
       394                         -0.2323536              -6.3227
       395                         -0.2317893              -6.3073
       396                         -0.2305373              -6.2732
       ...                                ...                  ...
       687                          1.3679645              37.2242
      -------------------------------------------------------------
                  HL-Gap            0.1000777 Eh            2.7233 eV
             Fermi-level           -0.3195506 Eh           -8.6954 eV

 * generalized Born model for continuum solvation

     #   Z     Born rad/Å   SASA/Å²    H-bond
     1   8 O        2.004    20.315    -0.002
     2   6 C        2.343     1.584    -0.000
     3   6 C        2.516     0.201    -0.000
     4   8 O        2.351     8.443    -0.001
     5   6 C        2.600     0.229    -0.000
     6   8 O        2.342     2.881    -0.000
     7   6 C        2.590     0.458    -0.000
     8   6 C        2.705     0.085    -0.000
     9   7 N        2.767     0.194    -0.000
    10   6 C        2.647     3.169    -0.000
    11   7 N        2.442    13.067    -0.001
    12   6 C        2.973     3.573    -0.000
    13   6 C        2.677     4.403    -0.000
    14   8 O        2.185    11.172    -0.001
    15   7 N        2.563     2.080    -0.000
    16   6 C        2.703     4.017    -0.000
    17   7 N        2.230     4.327    -0.000
    18   7 N        2.529     5.995    -0.000
    19   6 C        3.076     3.058    -0.000
    20   1 H        1.833    19.332    -0.032
    21   1 H        1.880     8.242    -0.014
    22   1 H        1.901    17.944    -0.030
    23   1 H        1.960    10.346    -0.017
    24   1 H        1.998     7.684    -0.013
    25   1 H        2.006     1.800    -0.003
    26   1 H        2.041     3.005    -0.005
    27   1 H        1.945    11.541    -0.019
    28   1 H        2.268     0.640    -0.001
    29   1 H        1.937     3.340    -0.006
    30   1 H        1.876    23.805    -0.040
    31   1 H        1.743    18.000    -0.030
    32  15 P        2.757     9.983    -0.002
    33   8 O        2.064    13.893    -0.002
    34   8 O        2.078    25.776    -0.003
    35   8 O        2.310     1.514    -0.000
    36   6 C        2.444     0.342    -0.000
    37   6 C        2.575     0.081    -0.000
    38   8 O        2.465     1.118    -0.000
    39   6 C        2.620     0.119    -0.000
    40   8 O        2.360     4.439    -0.000
    41   6 C        2.629     0.183    -0.000
    42   6 C        2.764     0.036    -0.000
    43   7 N        2.764     0.000     0.000
    44   6 C        2.815     0.000     0.000
    45   8 O        2.274     3.017    -0.000
    46   7 N        2.692     0.000     0.000
    47   6 C        2.869     0.000     0.000
    48   7 N        2.308     0.438    -0.000
    49   6 C        2.750     0.005    -0.000
    50   6 C        2.774     0.002    -0.000
    51   1 H        1.903    10.184    -0.017
    52   1 H        1.875    15.331    -0.026
    53   1 H        1.959    14.253    -0.024
    54   1 H        1.967     8.889    -0.015
    55   1 H        2.017     7.424    -0.012
    56   1 H        2.078     0.100    -0.000
    57   1 H        2.060     2.122    -0.004
    58   1 H        1.987     2.117    -0.004
    59   1 H        1.913    15.166    -0.025
    60   1 H        1.993    10.071    -0.017
    61   1 H        2.032     6.602    -0.011
    62  15 P        2.777     7.536    -0.002
    63   8 O        2.070    27.471    -0.003
    64   8 O        2.093     9.176    -0.001
    65   8 O        2.346     0.311    -0.000
    66   6 C        2.473     0.355    -0.000
    67   6 C        2.601     0.047    -0.000
    68   8 O        2.515     0.001    -0.000
    69   6 C        2.639     0.260    -0.000
    70   8 O        2.395     3.281    -0.000
    71   6 C        2.616     0.401    -0.000
    72   6 C        2.830     0.000     0.000
    73   7 N        2.893     0.000     0.000
    74   6 C        2.695     2.167    -0.000
    75   7 N        2.468    10.510    -0.001
    76   6 C        3.072     0.002    -0.000
    77   6 C        2.709     0.015    -0.000
    78   8 O        2.143    19.262    -0.002
    79   7 N        2.562     0.002    -0.000
    80   6 C        2.830     0.001    -0.000
    81   7 N        2.318     1.171    -0.000
    82   7 N        2.746     0.000     0.000
    83   6 C        3.294     0.000     0.000
    84   1 H        1.918     8.879    -0.015
    85   1 H        1.892    13.582    -0.023
    86   1 H        1.965    11.130    -0.019
    87   1 H        1.965     9.628    -0.016
    88   1 H        2.007     7.789    -0.013
    89   1 H        2.009     3.278    -0.006
    90   1 H        2.171     0.000     0.000
    91   1 H        1.966    10.424    -0.018
    92   1 H        2.018     9.450    -0.016
    93   1 H        1.922    13.238    -0.022
    94   1 H        2.115     0.829    -0.001
    95  15 P        2.791     8.246    -0.002
    96   8 O        2.081    27.459    -0.003
    97   8 O        2.095    12.319    -0.001
    98   8 O        2.360     0.183    -0.000
    99   6 C        2.543     0.013    -0.000
   100   6 C        2.670     0.000    -0.000
   101   8 O        2.526     0.014    -0.000
   102   6 C        2.652     0.011    -0.000
   103   8 O        2.408     0.847    -0.000
   104   6 C        2.568     0.944    -0.000
   105   6 C        2.744     0.044    -0.000
   106   7 N        2.798     0.446    -0.000
   107   6 C        2.709     4.870    -0.000
   108   7 N        2.495    10.017    -0.001
   109   6 C        3.039     3.274    -0.000
   110   6 C        2.719     3.880    -0.000
   111   7 N        2.210     4.215    -0.000
   112   7 N        2.406    12.335    -0.001
   113   6 C        2.543     8.477    -0.001
   114   7 N        2.424    10.417    -0.001
   115   6 C        3.056     3.281    -0.000
   116   1 H        2.038     0.066    -0.000
   117   1 H        1.937     9.391    -0.016
   118   1 H        2.085     0.079    -0.000
   119   1 H        1.993     4.478    -0.008
   120   1 H        1.989     8.932    -0.015
   121   1 H        1.939    16.066    -0.027
   122   1 H        2.040     9.056    -0.015
   123   1 H        2.001     5.185    -0.009
   124   1 H        1.862    22.310    -0.037
   125   1 H        1.886    16.948    -0.028
   126   1 H        1.909    25.360    -0.043
   127  15 P        2.760     8.505    -0.002
   128   8 O        2.078    15.529    -0.002
   129   8 O        2.074    27.146    -0.003
   130   8 O        2.261     7.784    -0.001
   131   6 C        2.443     0.301    -0.000
   132   6 C        2.552     0.195    -0.000
   133   8 O        2.461     2.587    -0.000
   134   6 C        2.611     0.282    -0.000
   135   8 O        2.352     3.883    -0.000
   136   6 C        2.580     0.676    -0.000
   137   6 C        2.749     0.017    -0.000
   138   7 N        2.832     0.000    -0.000
   139   6 C        2.721     1.046    -0.000
   140   7 N        2.596     0.220    -0.000
   141   6 C        3.258     0.000     0.000
   142   6 C        2.939     0.000     0.000
   143   7 N        2.419     0.000     0.000
   144   7 N        2.520     3.082    -0.000
   145   6 C        2.607     4.130    -0.000
   146   7 N        2.476     6.649    -0.000
   147   6 C        3.184     0.000     0.000
   148   1 H        1.868    16.875    -0.028
   149   1 H        1.939     7.201    -0.012
   150   1 H        1.922    17.288    -0.029
   151   1 H        1.956    11.083    -0.019
   152   1 H        1.980     9.038    -0.015
   153   1 H        1.987     5.879    -0.010
   154   1 H        2.079     1.541    -0.003
   155   1 H        1.970    15.335    -0.026
   156   1 H        2.029     0.825    -0.001
   157   1 H        2.229     0.000     0.000
   158   1 H        1.934    25.245    -0.042
   159  15 P        2.760    10.569    -0.002
   160   8 O        2.065    16.585    -0.002
   161   8 O        2.081    25.074    -0.003
   162   8 O        2.299     3.204    -0.000
   163   6 C        2.450     0.328    -0.000
   164   6 C        2.587     0.005    -0.000
   165   8 O        2.468     0.063    -0.000
   166   6 C        2.618     0.027    -0.000
   167   8 O        2.349     3.409    -0.000
   168   6 C        2.618    -0.001     0.000
   169   6 C        2.770     0.000    -0.000
   170   7 N        2.837     0.000    -0.000
   171   6 C        2.645     3.066    -0.000
   172   7 N        2.438    15.198    -0.001
   173   6 C        3.038     0.260    -0.000
   174   6 C        2.733     0.296    -0.000
   175   8 O        2.200     9.884    -0.001
   176   7 N        2.689     0.000     0.000
   177   6 C        2.907     0.000     0.000
   178   7 N        2.348     0.123    -0.000
   179   7 N        2.722     0.562    -0.000
   180   6 C        3.272     0.000     0.000
   181   1 H        1.916     9.430    -0.016
   182   1 H        1.882    11.686    -0.020
   183   1 H        1.985     9.270    -0.016
   184   1 H        1.969    11.838    -0.020
   185   1 H        1.996     5.319    -0.009
   186   1 H        2.079     0.000     0.000
   187   1 H        2.113     2.597    -0.004
   188   1 H        1.933    18.109    -0.030
   189   1 H        2.372     0.000     0.000
   190   1 H        2.026     0.822    -0.001
   191   1 H        1.953    11.823    -0.020
   192  15 P        2.765     9.877    -0.002
   193   8 O        2.063    16.476    -0.002
   194   8 O        2.090    23.025    -0.003
   195   8 O        2.315     0.739    -0.000
   196   6 C        2.441     0.405    -0.000
   197   6 C        2.523     0.104    -0.000
   198   8 O        2.390     4.700    -0.001
   199   6 C        2.475     0.393    -0.000
   200   8 O        2.045    15.705    -0.002
   201   6 C        2.497     1.297    -0.000
   202   6 C        2.648     0.285    -0.000
   203   7 N        2.640     0.300    -0.000
   204   6 C        2.672     4.150    -0.000
   205   8 O        2.183     8.501    -0.001
   206   7 N        2.554     2.522    -0.000
   207   6 C        2.727     3.661    -0.000
   208   7 N        2.262     3.846    -0.000
   209   6 C        2.636     4.655    -0.000
   210   6 C        2.667     2.321    -0.000
   211   1 H        1.905     8.697    -0.015
   212   1 H        1.874    10.590    -0.018
   213   1 H        1.918    15.630    -0.026
   214   1 H        1.926    12.194    -0.020
   215   1 H        1.728    21.429    -0.036
   216   1 H        1.958    12.347    -0.021
   217   1 H        1.897    18.563    -0.031
   218   1 H        1.950    12.852    -0.022
   219   1 H        1.959     3.406    -0.006
   220   1 H        1.894    17.393    -0.029
   221   1 H        1.954    14.329    -0.024
   222   1 H        2.009     3.927    -0.007
   223   1 H        1.786    17.054    -0.029
   224   1 H        1.779    19.657    -0.033
   225   1 H        1.765    23.644    -0.040
   226   1 H        1.759    22.999    -0.039
   227   1 H        1.767    18.823    -0.032
   228   1 H        1.773    17.780    -0.030

 total SASA / Å² :     1503.658

     #   Z          covCN         q      C6AA      α(0)
     1   8 O        1.655    -0.490    22.686     6.430
     2   6 C        3.675     0.062    19.760     6.369
     3   6 C        3.784     0.087    19.161     6.235
     4   8 O        1.699    -0.334    19.593     5.976
     5   6 C        3.944     0.112    18.688     6.143
     6   8 O        1.658    -0.353    19.964     6.032
     7   6 C        3.824    -0.089    22.177     6.701
     8   6 C        3.713     0.169    18.011     6.064
     9   7 N        2.816    -0.079    22.772     7.087
    10   6 C        3.156     0.091    25.683     8.286
    11   7 N        1.873    -0.291    28.387     7.898
    12   6 C        3.205    -0.015    27.766     8.582
    13   6 C        2.770     0.266    22.517     7.772
    14   8 O        0.860    -0.515    24.122     6.585
    15   7 N        2.715    -0.191    25.143     7.447
    16   6 C        2.829     0.240    22.999     7.859
    17   7 N        2.661    -0.275    27.101     7.732
    18   7 N        1.841    -0.369    30.482     8.182
    19   6 C        3.092     0.124    25.173     8.224
    20   1 H        0.924     0.069     2.102     2.267
    21   1 H        0.924     0.040     2.455     2.450
    22   1 H        0.924     0.088     1.900     2.155
    23   1 H        0.924     0.060     2.202     2.321
    24   1 H        0.925     0.075     2.032     2.229
    25   1 H        0.925     0.076     2.020     2.223
    26   1 H        0.924     0.078     1.995     2.209
    27   1 H        0.925     0.060     2.204     2.321
    28   1 H        0.861     0.243     0.912     1.496
    29   1 H        0.860     0.260     0.844     1.439
    30   1 H        0.860     0.263     0.833     1.430
    31   1 H        0.805     0.356     0.575     1.191
    32  15 P        3.738     0.763   130.552    20.525
    33   8 O        1.614    -0.401    20.897     6.170
    34   8 O        0.808    -0.585    25.785     6.807
    35   8 O        1.657    -0.347    19.846     6.014
    36   6 C        3.890     0.058    19.563     6.288
    37   6 C        3.816     0.099    18.945     6.195
    38   8 O        1.706    -0.334    19.601     5.977
    39   6 C        3.909     0.107    18.765     6.157
    40   8 O        1.657    -0.363    20.142     6.059
    41   6 C        3.837    -0.086    22.109     6.689
    42   6 C        3.740     0.178    17.835     6.026
    43   7 N        2.736    -0.086    22.920     7.110
    44   6 C        2.741     0.328    21.420     7.578
    45   8 O        0.861    -0.519    24.217     6.598
    46   7 N        1.859    -0.369    30.483     8.183
    47   6 C        2.870     0.190    23.953     8.023
    48   7 N        2.665    -0.241    26.302     7.617
    49   6 C        2.907    -0.095    30.380     9.038
    50   6 C        2.863     0.041    27.080     8.530
    51   1 H        0.924     0.087     1.911     2.162
    52   1 H        0.924     0.091     1.872     2.140
    53   1 H        0.924     0.082     1.962     2.190
    54   1 H        0.924     0.075     2.034     2.230
    55   1 H        0.925     0.078     2.000     2.212
    56   1 H        0.925     0.072     2.061     2.245
    57   1 H        0.924     0.067     2.122     2.278
    58   1 H        0.860     0.257     0.857     1.450
    59   1 H        0.860     0.243     0.912     1.496
    60   1 H        0.926     0.085     1.928     2.171
    61   1 H        0.926     0.085     1.926     2.170
    62  15 P        3.709     0.775   130.148    20.493
    63   8 O        0.808    -0.598    26.107     6.849
    64   8 O        1.614    -0.403    20.929     6.175
    65   8 O        1.657    -0.337    19.665     5.986
    66   6 C        3.887     0.063    19.469     6.273
    67   6 C        3.789     0.095    19.030     6.213
    68   8 O        1.700    -0.324    19.416     5.949
    69   6 C        3.925     0.109    18.733     6.151
    70   8 O        1.658    -0.365    20.182     6.065
    71   6 C        3.825    -0.094    22.273     6.716
    72   6 C        3.725     0.170    17.974     6.054
    73   7 N        2.819    -0.065    22.501     7.045
    74   6 C        3.163     0.093    25.626     8.274
    75   7 N        1.874    -0.280    28.108     7.859
    76   6 C        3.197    -0.016    27.852     8.602
    77   6 C        2.770     0.264    22.549     7.777
    78   8 O        0.860    -0.507    23.942     6.560
    79   7 N        2.708    -0.193    25.179     7.452
    80   6 C        2.827     0.237    23.041     7.865
    81   7 N        2.661    -0.251    26.522     7.649
    82   7 N        1.847    -0.362    30.267     8.154
    83   6 C        3.107     0.125    25.137     8.215
    84   1 H        0.924     0.075     2.028     2.227
    85   1 H        0.924     0.081     1.967     2.193
    86   1 H        0.924     0.098     1.799     2.098
    87   1 H        0.924     0.075     2.029     2.228
    88   1 H        0.925     0.097     1.813     2.106
    89   1 H        0.925     0.083     1.945     2.181
    90   1 H        0.924     0.069     2.096     2.264
    91   1 H        0.925     0.078     1.997     2.210
    92   1 H        0.860     0.242     0.915     1.498
    93   1 H        0.860     0.246     0.900     1.486
    94   1 H        0.860     0.244     0.905     1.491
    95  15 P        3.713     0.794   129.532    20.445
    96   8 O        0.808    -0.600    26.140     6.853
    97   8 O        1.614    -0.400    20.875     6.167
    98   8 O        1.657    -0.340    19.727     5.996
    99   6 C        3.890     0.076    19.271     6.241
   100   6 C        3.816     0.106    18.829     6.176
   101   8 O        1.702    -0.324    19.415     5.949
   102   6 C        3.942     0.110    18.716     6.148
   103   8 O        1.658    -0.368    20.242     6.074
   104   6 C        3.828    -0.093    22.242     6.711
   105   6 C        3.756     0.176    17.839     6.022
   106   7 N        2.833    -0.069    22.569     7.056
   107   6 C        3.171     0.102    25.404     8.234
   108   7 N        1.872    -0.298    28.563     7.922
   109   6 C        3.233     0.008    26.995     8.433
   110   6 C        2.903     0.172    24.312     8.085
   111   7 N        2.662    -0.257    26.676     7.671
   112   7 N        1.857    -0.324    29.265     8.018
   113   6 C        2.920     0.139    24.960     8.193
   114   7 N        1.827    -0.347    29.855     8.097
   115   6 C        3.135     0.131    24.936     8.174
   116   1 H        0.925     0.059     2.215     2.327
   117   1 H        0.924     0.067     2.121     2.277
   118   1 H        0.924     0.064     2.157     2.297
   119   1 H        0.924     0.066     2.128     2.281
   120   1 H        0.924     0.091     1.868     2.137
   121   1 H        0.924     0.084     1.943     2.180
   122   1 H        0.924     0.071     2.077     2.254
   123   1 H        0.926     0.063     2.161     2.299
   124   1 H        0.860     0.261     0.840     1.436
   125   1 H        0.860     0.242     0.915     1.498
   126   1 H        0.926     0.050     2.323     2.383
   127  15 P        3.738     0.767   130.427    20.515
   128   8 O        1.614    -0.374    20.378     6.093
   129   8 O        0.808    -0.565    25.292     6.741
   130   8 O        1.657    -0.349    19.879     6.019
   131   6 C        3.902     0.070    19.364     6.255
   132   6 C        3.787     0.093    19.062     6.219
   133   8 O        1.705    -0.334    19.602     5.978
   134   6 C        3.939     0.111    18.701     6.145
   135   8 O        1.657    -0.351    19.919     6.025
   136   6 C        3.821    -0.088    22.153     6.698
   137   6 C        3.744     0.178    17.830     6.024
   138   7 N        2.830    -0.072    22.627     7.065
   139   6 C        3.160     0.100    25.490     8.254
   140   7 N        1.870    -0.293    28.446     7.906
   141   6 C        3.223     0.007    27.127     8.466
   142   6 C        2.906     0.169    24.365     8.094
   143   7 N        2.665    -0.242    26.310     7.618
   144   7 N        1.860    -0.320    29.145     8.002
   145   6 C        2.922     0.135    25.045     8.207
   146   7 N        1.827    -0.338    29.618     8.064
   147   6 C        3.138     0.135    24.837     8.156
   148   1 H        0.924     0.073     2.048     2.238
   149   1 H        0.924     0.062     2.176     2.307
   150   1 H        0.924     0.091     1.866     2.136
   151   1 H        0.924     0.065     2.145     2.290
   152   1 H        0.924     0.076     2.018     2.222
   153   1 H        0.925     0.081     1.968     2.194
   154   1 H        0.924     0.070     2.084     2.258
   155   1 H        0.925     0.068     2.104     2.268
   156   1 H        0.860     0.237     0.934     1.514
   157   1 H        0.860     0.219     1.014     1.577
   158   1 H        0.926     0.057     2.236     2.338
   159  15 P        3.724     0.761   130.647    20.532
   160   8 O        1.614    -0.383    20.549     6.118
   161   8 O        0.808    -0.574    25.523     6.772
   162   8 O        1.657    -0.353    19.963     6.032
   163   6 C        3.896     0.059    19.535     6.283
   164   6 C        3.827     0.105    18.832     6.175
   165   8 O        1.702    -0.333    19.582     5.975
   166   6 C        3.889     0.114    18.672     6.143
   167   8 O        1.657    -0.351    19.915     6.024
   168   6 C        3.822    -0.092    22.232     6.710
   169   6 C        3.753     0.174    17.871     6.028
   170   7 N        2.809    -0.084    22.880     7.104
   171   6 C        3.166     0.090    25.678     8.280
   172   7 N        1.878    -0.280    28.115     7.860
   173   6 C        3.195    -0.011    27.761     8.590
   174   6 C        2.770     0.266    22.506     7.770
   175   8 O        0.860    -0.499    23.760     6.535
   176   7 N        2.714    -0.186    25.022     7.429
   177   6 C        2.828     0.241    22.973     7.854
   178   7 N        2.662    -0.260    26.753     7.682
   179   7 N        1.843    -0.385    30.909     8.239
   180   6 C        3.111     0.125    25.119     8.211
   181   1 H        0.924     0.082     1.955     2.187
   182   1 H        0.924     0.089     1.885     2.147
   183   1 H        0.924     0.073     2.056     2.243
   184   1 H        0.924     0.066     2.133     2.284
   185   1 H        0.925     0.073     2.055     2.242
   186   1 H        0.925     0.082     1.959     2.189
   187   1 H        0.924     0.064     2.150     2.293
   188   1 H        0.925     0.065     2.144     2.290
   189   1 H        0.861     0.244     0.907     1.492
   190   1 H        0.860     0.260     0.844     1.439
   191   1 H        0.860     0.241     0.918     1.501
   192  15 P        3.703     0.775   130.144    20.493
   193   8 O        1.614    -0.391    20.689     6.139
   194   8 O        0.808    -0.589    25.871     6.818
   195   8 O        1.657    -0.360    20.092     6.051
   196   6 C        3.898     0.058    19.551     6.285
   197   6 C        3.782     0.093    19.068     6.220
   198   8 O        1.701    -0.339    19.697     5.992
   199   6 C        3.738     0.107    18.897     6.203
   200   8 O        1.654    -0.505    22.997     6.474
   201   6 C        3.812    -0.090    22.199     6.706
   202   6 C        3.716     0.169    18.005     6.062
   203   7 N        2.737    -0.087    22.940     7.114
   204   6 C        2.738     0.329    21.409     7.576
   205   8 O        0.861    -0.528    24.416     6.625
   206   7 N        1.857    -0.365    30.378     8.169
   207   6 C        2.869     0.192    23.907     8.015
   208   7 N        2.665    -0.250    26.511     7.647
   209   6 C        2.910    -0.097    30.437     9.047
   210   6 C        2.856     0.042    27.059     8.526
   211   1 H        0.924     0.074     2.038     2.232
   212   1 H        0.924     0.079     1.992     2.207
   213   1 H        0.924     0.078     2.003     2.213
   214   1 H        0.924     0.050     2.318     2.381
   215   1 H        0.805     0.370     0.543     1.157
   216   1 H        0.925     0.070     2.088     2.260
   217   1 H        0.924     0.091     1.865     2.136
   218   1 H        0.924     0.079     1.986     2.204
   219   1 H        0.860     0.251     0.880     1.469
   220   1 H        0.860     0.238     0.929     1.510
   221   1 H        0.926     0.079     1.990     2.206
   222   1 H        0.925     0.089     1.889     2.149
   223   1 H        0.898     0.463     0.378     0.962
   224   1 H        0.897     0.475     0.362     0.942
   225   1 H        0.898     0.482     0.354     0.930
   226   1 H        0.899     0.486     0.349     0.925
   227   1 H        0.899     0.474     0.364     0.944
   228   1 H        0.898     0.471     0.368     0.949

 Mol. C6AA /au·bohr⁶  :     687117.934761
 Mol. C8AA /au·bohr⁸  :   17055851.503620
 Mol. α(0) /au        :       1256.527822


Wiberg/Mayer (AO) data.
largest (>0.10) Wiberg bond orders for each atom

 ---------------------------------------------------------------------------
     #   Z sym  total        # sym  WBO       # sym  WBO       # sym  WBO
 ---------------------------------------------------------------------------
     1   8 O    1.923 --     2 C    1.008    31 H    0.856
     2   6 C    3.959 --     1 O    1.008     3 C    0.974    20 H    0.969
                            21 H    0.967
     3   6 C    3.940 --     2 C    0.974     5 C    0.973     4 O    0.961
                            22 H    0.954
     4   8 O    2.073 --     8 C    0.970     3 C    0.961
     5   6 C    3.930 --     7 C    0.992     3 C    0.973    23 H    0.961
                             6 O    0.939
     6   8 O    2.251 --    32 P    1.100     5 C    0.939
     7   6 C    3.990 --     5 C    0.992     8 C    0.987    25 H    0.968
                            24 H    0.966
     8   6 C    3.934 --     7 C    0.987     4 O    0.970    26 H    0.954
                             9 N    0.953
     9   7 N    3.580 --    10 C    1.183    19 C    1.167     8 C    0.953
                            11 N    0.112
    10   6 C    3.943 --    11 N    1.620     9 N    1.183    27 H    0.956
    11   7 N    3.017 --    10 C    1.620    12 C    1.187     9 N    0.112
    12   6 C    3.961 --    19 C    1.349    11 N    1.187    13 C    1.135
    13   6 C    3.950 --    14 O    1.553    15 N    1.144    12 C    1.135
    14   8 O    1.949 --    13 C    1.553    15 N    0.134
    15   7 N    3.519 --    16 C    1.168    13 C    1.144    28 H    0.855
                            14 O    0.134
    16   6 C    3.968 --    18 N    1.355    17 N    1.354    15 N    1.168
    17   7 N    3.401 --    16 C    1.354    30 H    0.911    29 H    0.862
                            18 N    0.108
    18   7 N    2.957 --    16 C    1.355    19 C    1.241    17 N    0.108
    19   6 C    3.959 --    12 C    1.349    18 N    1.241     9 N    1.167
    20   1 H    0.995 --     2 C    0.969
    21   1 H    0.998 --     2 C    0.967
    22   1 H    0.992 --     3 C    0.954
    23   1 H    0.996 --     5 C    0.961
    24   1 H    0.994 --     7 C    0.966
    25   1 H    0.994 --     7 C    0.968
    26   1 H    0.994 --     8 C    0.954
    27   1 H    0.996 --    10 C    0.956
    28   1 H    0.941 --    15 N    0.855
    29   1 H    0.932 --    17 N    0.862
    30   1 H    0.930 --    17 N    0.911
    31   1 H    0.873 --     1 O    0.856
    32  15 P    5.436 --    34 O    1.773    33 O    1.386    35 O    1.116
                             6 O    1.100
    33   8 O    2.271 --    32 P    1.386   226 H    0.726
    34   8 O    1.974 --    32 P    1.773
    35   8 O    2.253 --    32 P    1.116    36 C    0.937
    36   6 C    3.921 --    37 C    0.992    52 H    0.963    51 H    0.963
                            35 O    0.937
    37   6 C    3.945 --    36 C    0.992    39 C    0.963    38 O    0.963
                            53 H    0.950
    38   8 O    2.057 --    42 C    0.963    37 C    0.963
    39   6 C    3.929 --    41 C    0.994    37 C    0.963    54 H    0.960
                            40 O    0.933
    40   8 O    2.240 --    62 P    1.095    39 C    0.933
    41   6 C    3.989 --    39 C    0.994    42 C    0.984    55 H    0.965
                            56 H    0.964
    42   6 C    3.930 --    41 C    0.984    38 O    0.963    43 N    0.959
                            57 H    0.951
    43   7 N    3.572 --    50 C    1.202    44 C    1.076    42 C    0.959
                            45 O    0.111
    44   6 C    3.953 --    45 O    1.537    46 N    1.245    43 N    1.076
    45   8 O    1.934 --    44 C    1.537    46 N    0.122    43 N    0.111
    46   7 N    3.051 --    47 C    1.341    44 C    1.245    45 O    0.122
                            48 N    0.112
    47   6 C    3.970 --    48 N    1.392    46 N    1.341    49 C    1.148
    48   7 N    3.464 --    47 C    1.392    59 H    0.921    58 H    0.868
                            46 N    0.112
    49   6 C    3.977 --    50 C    1.657    47 C    1.148    60 H    0.960
    50   6 C    3.960 --    49 C    1.657    43 N    1.202    61 H    0.954
    51   1 H    0.992 --    36 C    0.963
    52   1 H    0.991 --    36 C    0.963
    53   1 H    0.992 --    37 C    0.950
    54   1 H    0.994 --    39 C    0.960
    55   1 H    0.993 --    41 C    0.965
    56   1 H    0.995 --    41 C    0.964
    57   1 H    0.995 --    42 C    0.951
    58   1 H    0.933 --    48 N    0.868
    59   1 H    0.940 --    48 N    0.921
    60   1 H    0.992 --    49 C    0.960
    61   1 H    0.992 --    50 C    0.954
    62  15 P    5.403 --    63 O    1.744    64 O    1.371    65 O    1.112
                            40 O    1.095
    63   8 O    1.957 --    62 P    1.744
    64   8 O    2.265 --    62 P    1.371   225 H    0.731
    65   8 O    2.250 --    62 P    1.112    66 C    0.940
    66   6 C    3.919 --    67 C    0.983    84 H    0.964    85 H    0.964
                            65 O    0.940
    67   6 C    3.945 --    66 C    0.983    69 C    0.971    68 O    0.965
                            86 H    0.948
    68   8 O    2.086 --    67 C    0.965    72 C    0.964
    69   6 C    3.928 --    71 C    0.991    67 C    0.971    87 H    0.957
                            70 O    0.932
    70   8 O    2.240 --    95 P    1.095    69 C    0.932
    71   6 C    3.986 --    69 C    0.991    72 C    0.989    88 H    0.962
                            89 H    0.962
    72   6 C    3.932 --    71 C    0.989    68 O    0.964    73 N    0.956
                            90 H    0.951
    73   7 N    3.591 --    74 C    1.192    83 C    1.171    72 C    0.956
                            75 N    0.108
    74   6 C    3.939 --    75 N    1.612    73 N    1.192    91 H    0.954
    75   7 N    3.009 --    74 C    1.612    76 C    1.187    73 N    0.108
    76   6 C    3.962 --    83 C    1.357    75 N    1.187    77 C    1.128
    77   6 C    3.948 --    78 O    1.594    76 C    1.128    79 N    1.115
    78   8 O    1.928 --    77 C    1.594    79 N    0.134
    79   7 N    3.503 --    80 C    1.162    77 C    1.115    92 H    0.906
                            78 O    0.134
    80   6 C    3.969 --    82 N    1.364    81 N    1.348    79 N    1.162
    81   7 N    3.416 --    80 C    1.348    93 H    0.918    94 H    0.878
                            82 N    0.109
    82   7 N    2.999 --    80 C    1.364    83 C    1.222    81 N    0.109
    83   6 C    3.960 --    76 C    1.357    82 N    1.222    73 N    1.171
    84   1 H    0.994 --    66 C    0.964
    85   1 H    0.993 --    66 C    0.964
    86   1 H    0.989 --    67 C    0.948
    87   1 H    0.994 --    69 C    0.957
    88   1 H    0.990 --    71 C    0.962
    89   1 H    0.993 --    71 C    0.962
    90   1 H    0.995 --    72 C    0.951
    91   1 H    0.993 --    74 C    0.954
    92   1 H    0.941 --    79 N    0.906
    93   1 H    0.939 --    81 N    0.918
    94   1 H    0.939 --    81 N    0.878
    95  15 P    5.382 --    96 O    1.743    97 O    1.361    98 O    1.104
                            70 O    1.095
    96   8 O    1.959 --    95 P    1.743
    97   8 O    2.260 --    95 P    1.361   224 H    0.734
    98   8 O    2.243 --    95 P    1.104    99 C    0.946
    99   6 C    3.928 --   100 C    0.984   117 H    0.967   116 H    0.966
                            98 O    0.946
   100   6 C    3.953 --    99 C    0.984   101 O    0.970   102 C    0.968
                           118 H    0.952
   101   8 O    2.070 --   100 C    0.970   105 C    0.965
   102   6 C    3.931 --   104 C    0.990   100 C    0.968   119 H    0.950
                           103 O    0.938
   103   8 O    2.231 --   127 P    1.082   102 C    0.938
   104   6 C    3.986 --   102 C    0.990   105 C    0.980   121 H    0.970
                           120 H    0.966
   105   6 C    3.933 --   104 C    0.980   106 N    0.966   101 O    0.965
                           122 H    0.954
   106   7 N    3.593 --   107 C    1.208   115 C    1.151   105 C    0.966
                           108 N    0.114
   107   6 C    3.952 --   108 N    1.607   106 N    1.208   123 H    0.955
   108   7 N    3.005 --   107 C    1.607   109 C    1.178   106 N    0.114
   109   6 C    3.969 --   115 C    1.339   110 C    1.187   108 N    1.178
   110   6 C    3.974 --   111 N    1.341   112 N    1.309   109 C    1.187
   111   7 N    3.431 --   110 C    1.341   125 H    0.923   124 H    0.911
   112   7 N    3.025 --   113 C    1.419   110 C    1.309
   113   6 C    3.968 --   114 N    1.455   112 N    1.419   126 H    0.957
   114   7 N    3.000 --   113 C    1.455   115 C    1.258
   115   6 C    3.957 --   109 C    1.339   114 N    1.258   106 N    1.151
   116   1 H    0.996 --    99 C    0.966
   117   1 H    0.995 --    99 C    0.967
   118   1 H    0.995 --   100 C    0.952
   119   1 H    0.995 --   102 C    0.950
   120   1 H    0.991 --   104 C    0.966
   121   1 H    0.993 --   104 C    0.970
   122   1 H    0.995 --   105 C    0.954
   123   1 H    0.995 --   107 C    0.955
   124   1 H    0.931 --   111 N    0.911
   125   1 H    0.941 --   111 N    0.923
   126   1 H    0.997 --   113 C    0.957
   127  15 P    5.432 --   129 O    1.792   128 O    1.407   130 O    1.088
                           103 O    1.082
   128   8 O    2.306 --   127 P    1.407   223 H    0.738
   129   8 O    1.994 --   127 P    1.792
   130   8 O    2.235 --   127 P    1.088   131 C    0.950
   131   6 C    3.928 --   132 C    0.984   149 H    0.969   148 H    0.967
                           130 O    0.950
   132   6 C    3.943 --   131 C    0.984   134 C    0.967   133 O    0.963
                           150 H    0.952
   133   8 O    2.062 --   137 C    0.964   132 C    0.963
   134   6 C    3.931 --   136 C    0.989   132 C    0.967   151 H    0.961
                           135 O    0.943
   135   8 O    2.248 --   159 P    1.091   134 C    0.943
   136   6 C    3.989 --   137 C    0.990   134 C    0.989   153 H    0.968
                           152 H    0.968
   137   6 C    3.932 --   136 C    0.990   133 O    0.964   138 N    0.960
                           154 H    0.948
   138   7 N    3.589 --   139 C    1.214   147 C    1.146   137 C    0.960
                           140 N    0.113
   139   6 C    3.954 --   140 N    1.599   138 N    1.214   155 H    0.958
   140   7 N    3.051 --   139 C    1.599   141 C    1.171   138 N    0.113
   141   6 C    3.968 --   147 C    1.344   142 C    1.183   140 N    1.171
   142   6 C    3.975 --   143 N    1.347   144 N    1.304   141 C    1.183
   143   7 N    3.448 --   142 C    1.347   156 H    0.907   157 H    0.895
   144   7 N    3.024 --   145 C    1.419   142 C    1.304
   145   6 C    3.968 --   146 N    1.454   144 N    1.419   158 H    0.956
   146   7 N    3.001 --   145 C    1.454   147 C    1.260
   147   6 C    3.957 --   141 C    1.344   146 N    1.260   138 N    1.146
   148   1 H    0.994 --   131 C    0.967
   149   1 H    0.996 --   131 C    0.969
   150   1 H    0.992 --   132 C    0.952
   151   1 H    0.995 --   134 C    0.961
   152   1 H    0.994 --   136 C    0.968
   153   1 H    0.993 --   136 C    0.968
   154   1 H    0.995 --   137 C    0.948
   155   1 H    0.994 --   139 C    0.958
   156   1 H    0.943 --   143 N    0.907
   157   1 H    0.952 --   143 N    0.895
   158   1 H    0.996 --   145 C    0.956
   159  15 P    5.447 --   161 O    1.790   160 O    1.397   162 O    1.105
                           135 O    1.091
   160   8 O    2.294 --   159 P    1.397   228 H    0.737
   161   8 O    1.985 --   159 P    1.790
   162   8 O    2.242 --   159 P    1.105   163 C    0.940
   163   6 C    3.923 --   164 C    0.989   181 H    0.962   182 H    0.960
                           162 O    0.940
   164   6 C    3.944 --   163 C    0.989   165 O    0.966   166 C    0.965
                           183 H    0.950
   165   8 O    2.067 --   169 C    0.966   164 C    0.966
   166   6 C    3.929 --   168 C    0.989   164 C    0.965   184 H    0.963
                           167 O    0.942
   167   8 O    2.247 --   192 P    1.096   166 C    0.942
   168   6 C    3.987 --   166 C    0.989   169 C    0.977   185 H    0.974
                           186 H    0.965
   169   6 C    3.934 --   168 C    0.977   165 O    0.966   170 N    0.965
                           187 H    0.954
   170   7 N    3.571 --   171 C    1.173   180 C    1.159   169 C    0.965
                           172 N    0.113
   171   6 C    3.938 --   172 N    1.623   170 N    1.173   188 H    0.959
   172   7 N    3.021 --   171 C    1.623   173 C    1.189   170 N    0.113
   173   6 C    3.962 --   180 C    1.354   172 N    1.189   174 C    1.132
   174   6 C    3.952 --   175 O    1.562   176 N    1.141   173 C    1.132
   175   8 O    1.955 --   174 C    1.562   176 N    0.134
   176   7 N    3.523 --   177 C    1.176   174 C    1.141   189 H    0.852
                           175 O    0.134
   177   6 C    3.969 --   179 N    1.352   178 N    1.350   176 N    1.176
   178   7 N    3.407 --   177 C    1.350   191 H    0.921   190 H    0.863
                           179 N    0.106
   179   7 N    2.953 --   177 C    1.352   180 C    1.240   178 N    0.106
   180   6 C    3.957 --   173 C    1.354   179 N    1.240   170 N    1.159
   181   1 H    0.993 --   163 C    0.962
   182   1 H    0.991 --   163 C    0.960
   183   1 H    0.994 --   164 C    0.950
   184   1 H    0.996 --   166 C    0.963
   185   1 H    0.995 --   168 C    0.974
   186   1 H    0.993 --   168 C    0.965
   187   1 H    0.996 --   169 C    0.954
   188   1 H    0.995 --   171 C    0.959
   189   1 H    0.940 --   176 N    0.852
   190   1 H    0.932 --   178 N    0.863
   191   1 H    0.941 --   178 N    0.921
   192  15 P    5.419 --   194 O    1.766   193 O    1.384   195 O    1.103
                           167 O    1.096
   193   8 O    2.282 --   192 P    1.384   227 H    0.735
   194   8 O    1.971 --   192 P    1.766
   195   8 O    2.237 --   192 P    1.103   196 C    0.934
   196   6 C    3.921 --   197 C    0.988   211 H    0.965   212 H    0.962
                           195 O    0.934
   197   6 C    3.941 --   196 C    0.988   199 C    0.963   198 O    0.962
                           213 H    0.951
   198   8 O    2.068 --   202 C    0.975   197 C    0.962
   199   6 C    3.961 --   201 C    0.995   200 O    0.995   197 C    0.963
                           214 H    0.963
   200   8 O    1.913 --   199 C    0.995   215 H    0.849
   201   6 C    3.986 --   199 C    0.995   202 C    0.978   216 H    0.971
                           217 H    0.970
   202   6 C    3.924 --   201 C    0.978   198 O    0.975   218 H    0.956
                           203 N    0.946
   203   7 N    3.576 --   210 C    1.206   204 C    1.085   202 C    0.946
                           205 O    0.112
   204   6 C    3.953 --   205 O    1.530   206 N    1.245   203 N    1.085
   205   8 O    1.926 --   204 C    1.530   206 N    0.121   203 N    0.112
   206   7 N    3.051 --   207 C    1.344   204 C    1.245   205 O    0.121
                           208 N    0.112
   207   6 C    3.968 --   208 N    1.385   206 N    1.344   209 C    1.150
   208   7 N    3.459 --   207 C    1.385   220 H    0.922   219 H    0.868
                           206 N    0.112
   209   6 C    3.978 --   210 C    1.654   207 C    1.150   221 H    0.961
   210   6 C    3.961 --   209 C    1.654   203 N    1.206   222 H    0.953
   211   1 H    0.994 --   196 C    0.965
   212   1 H    0.993 --   196 C    0.962
   213   1 H    0.993 --   197 C    0.951
   214   1 H    0.997 --   199 C    0.963
   215   1 H    0.863 --   200 O    0.849
   216   1 H    0.995 --   201 C    0.971
   217   1 H    0.991 --   201 C    0.970
   218   1 H    0.993 --   202 C    0.956
   219   1 H    0.936 --   208 N    0.868
   220   1 H    0.942 --   208 N    0.922
   221   1 H    0.993 --   209 C    0.961
   222   1 H    0.991 --   210 C    0.953
   223   1 H    0.785 --   128 O    0.738
   224   1 H    0.773 --    97 O    0.734
   225   1 H    0.767 --    64 O    0.731
   226   1 H    0.764 --    33 O    0.726
   227   1 H    0.775 --   193 O    0.735
   228   1 H    0.778 --   160 O    0.737
 ---------------------------------------------------------------------------

Topologies differ in total number of bonds
Writing topology from bond orders to xtbtopo.mol

molecular dipole:
                 x           y           z       tot (Debye)
 q only:        9.638       0.471      -5.628
   full:        9.718      -0.020      -7.115      30.614
molecular quadrupole (traceless):
                xx          xy          yy          xz          yz          zz
 q only:     -103.124     -41.110     109.185     -28.348     101.364      -6.060
  q+dip:     -113.125     -35.814     121.140     -23.892     112.245      -8.015
   full:     -114.549     -43.707     125.074     -15.856     104.653     -10.525


           -------------------------------------------------
          | TOTAL ENERGY             -450.840888965477 Eh   |
          | GRADIENT NORM               0.362535887024 Eh/α |
          | HOMO-LUMO GAP               2.723252408444 eV   |
           -------------------------------------------------
########################################################################
[WARNING] Runtime exception occurred
-2- restart_readRestart: Dimension missmatch in restart file.
-1- restart_readRestart: Number of electron missmatch in restart file.
########################################################################

------------------------------------------------------------------------
 * finished run on 2023/03/09 at 13:52:04.745     
------------------------------------------------------------------------
 total:
 * wall-time:     0 d,  0 h,  0 min,  1.156 sec
 *  cpu-time:     0 d,  0 h,  0 min, 10.814 sec
 * ratio c/w:     9.356 speedup
 SCF:
 * wall-time:     0 d,  0 h,  0 min,  0.940 sec
 *  cpu-time:     0 d,  0 h,  0 min,  9.399 sec
 * ratio c/w:     9.998 speedup

