      -----------------------------------------------------------      
     |                   =====================                   |     
     |                           x T B                           |     
     |                   =====================                   |     
     |                         S. Grimme                         |     
     |          Mulliken Center for Theoretical Chemistry        |     
     |                    University of Bonn                     |     
      -----------------------------------------------------------      

   * xtb version 6.5.1 (579679a) compiled by 'ehlert@majestix' on 2022-07-11

   xtb is free software: you can redistribute it and/or modify it under
   the terms of the GNU Lesser General Public License as published by
   the Free Software Foundation, either version 3 of the License, or
   (at your option) any later version.
   
   xtb is distributed in the hope that it will be useful,
   but WITHOUT ANY WARRANTY; without even the implied warranty of
   MERCHANTABILITY or FITNESS FOR A PARTICULAR PURPOSE.  See the
   GNU Lesser General Public License for more details.
   
   Cite this work as:
   * C. Bannwarth, E. Caldeweyher, S. Ehlert, A. Hansen, P. Pracht,
     J. Seibert, S. Spicher, S. Grimme, WIREs Comput. Mol. Sci., 2020, 11,
     e01493. DOI: 10.1002/wcms.1493
   
   for GFN2-xTB:
   * C. Bannwarth, S. Ehlert and S. Grimme., J. Chem. Theory Comput., 2019,
     15, 1652-1671. DOI: 10.1021/acs.jctc.8b01176
   for GFN1-xTB:
   * S. Grimme, C. Bannwarth, P. Shushkov, J. Chem. Theory Comput., 2017,
     13, 1989-2009. DOI: 10.1021/acs.jctc.7b00118
   for GFN0-xTB:
   * P. Pracht, E. Caldeweyher, S. Ehlert, S. Grimme, ChemRxiv, 2019, preprint.
     DOI: 10.26434/chemrxiv.8326202.v1
   for GFN-FF:
   * S. Spicher and S. Grimme, Angew. Chem. Int. Ed., 2020, 59, 15665-15673.
     DOI: 10.1002/anie.202004239
   
   for ALPB and GBSA implicit solvation:
   * S. Ehlert, M. Stahn, S. Spicher, S. Grimme, J. Chem. Theory Comput.,
     2021, 17, 4250-4261. DOI: 10.1021/acs.jctc.1c00471
   
   for DFT-D4:
   * E. Caldeweyher, C. Bannwarth and S. Grimme, J. Chem. Phys., 2017,
     147, 034112. DOI: 10.1063/1.4993215
   * E. Caldeweyher, S. Ehlert, A. Hansen, H. Neugebauer, S. Spicher,
     C. Bannwarth and S. Grimme, J. Chem. Phys., 2019, 150, 154122.
     DOI: 10.1063/1.5090222
   * E. Caldeweyher, J.-M. Mewes, S. Ehlert and S. Grimme, Phys. Chem. Chem. Phys.
     2020, 22, 8499-8512. DOI: 10.1039/D0CP00502A
   
   for sTDA-xTB:
   * S. Grimme and C. Bannwarth, J. Chem. Phys., 2016, 145, 054103.
     DOI: 10.1063/1.4959605
   
   in the mass-spec context:
   * V. Asgeirsson, C. Bauer and S. Grimme, Chem. Sci., 2017, 8, 4879.
     DOI: 10.1039/c7sc00601b
   * J. Koopman and S. Grimme, ACS Omega 2019, 4, 12, 15120-15133.
     DOI: 10.1021/acsomega.9b02011
   
   for metadynamics refer to:
   * S. Grimme, J. Chem. Theory Comput., 2019, 155, 2847-2862
     DOI: 10.1021/acs.jctc.9b00143
   
   for SPH calculations refer to:
   * S. Spicher and S. Grimme, J. Chem. Theory Comput., 2021, 17, 1701-1714
     DOI: 10.1021/acs.jctc.0c01306
   
   with help from (in alphabetical order)
   P. Atkinson, C. Bannwarth, F. Bohle, G. Brandenburg, E. Caldeweyher
   M. Checinski, S. Dohm, S. Ehlert, S. Ehrlich, I. Gerasimov, C. Hölzer
   A. Katbashev, J. Koopman, C. Lavigne, S. Lehtola, F. März, M. Müller,
   F. Musil, H. Neugebauer, J. Pisarek, C. Plett, P. Pracht, F. Pultar,
   J. Seibert, P. Shushkov, S. Spicher, M. Stahn, M. Steiner, T. Strunk,
   J. Stückrath, T. Rose, and J. Unsleber
   
 * started run on 2023/03/09 at 13:52:19.268     

           -------------------------------------------------
          |                Calculation Setup                |
           -------------------------------------------------

          program call               : /N/u/schandy/BigRed3/bin/xtb-6.5.1/bin/xtb 1n2w.xyz --gbsa water
          hostname                   : nid00004
          coordinate file            : 1n2w.xyz
          omp threads                :                    10

   ID    Z sym.   atoms
    1    8 O      1, 4, 6, 11, 30-32, 35, 37, 45, 63-65, 68, 70, 75, 93-95,
                  98, 100, 108, 126-128, 131, 133, 158-160, 163, 165,
                  190-192, 195, 197, 202, 205, 222-224, 227, 229, 234, 237,
                  254-256, 259, 261, 269, 275, 288-290, 293, 295, 303,
                  321-323, 326, 328, 333, 351-353, 356, 358, 366, 384, 387,
                  389, 394, 413-415, 418, 420, 428, 446-448, 451, 453, 458,
                  476-478, 481, 483, 491, 509-511, 514, 516, 541-543, 546,
                  548, 573-575, 578, 580, 585, 588, 605-607, 610, 612, 617,
                  620, 637-639, 642, 644, 652, 658, 671-673, 676, 678, 686,
                  704-706, 709, 711, 716, 734-736, 739, 741, 749
    2    6 C      2, 3, 5, 7, 8, 10, 13, 15, 16, 33, 34, 36, 38, 39, 41, 43,
                  44, 47, 50, 66, 67, 69, 71, 72, 74, 77, 79, 80, 96, 97, 99,
                  101, 102, 104, 106, 107, 110, 113, 129, 130, 132, 134, 135,
                  137, 139, 140, 143, 145, 161, 162, 164, 166, 167, 169, 171,
                  172, 175, 177, 193, 194, 196, 198, 199, 201, 204, 206-208,
                  225, 226, 228, 230, 231, 233, 236, 238-240, 257, 258, 260,
                  262, 263, 265, 267, 268, 271, 274, 291, 292, 294, 296, 297,
                  299, 301, 302, 305, 308, 324, 325, 327, 329, 330, 332, 335,
                  337, 338, 354, 355, 357, 359, 360, 362, 364, 365, 368, 371,
                  385, 386, 388, 390, 391, 393, 396, 398, 399, 416, 417, 419,
                  421, 422, 424, 426, 427, 430, 433, 449, 450, 452, 454, 455,
                  457, 460, 462, 463, 479, 480, 482, 484, 485, 487, 489, 490,
                  493, 496, 512, 513, 515, 517, 518, 520, 522, 523, 526, 528,
                  544, 545, 547, 549, 550, 552, 554, 555, 558, 560, 576, 577,
                  579, 581, 582, 584, 587, 589-591, 608, 609, 611, 613, 614,
                  616, 619, 621-623, 640, 641, 643, 645, 646, 648, 650, 651,
                  654, 657, 674, 675, 677, 679, 680, 682, 684, 685, 688, 691,
                  707, 708, 710, 712, 713, 715, 718, 720, 721, 737, 738, 740,
                  742, 743, 745, 747, 748, 751, 754
    3    7 N      9, 12, 14, 40, 42, 46, 48, 49, 73, 76, 78, 103, 105, 109,
                  111, 112, 136, 138, 141, 142, 144, 168, 170, 173, 174, 176,
                  200, 203, 232, 235, 264, 266, 270, 272, 273, 298, 300, 304,
                  306, 307, 331, 334, 336, 361, 363, 367, 369, 370, 392, 395,
                  397, 423, 425, 429, 431, 432, 456, 459, 461, 486, 488, 492,
                  494, 495, 519, 521, 524, 525, 527, 551, 553, 556, 557, 559,
                  583, 586, 615, 618, 647, 649, 653, 655, 656, 681, 683, 687,
                  689, 690, 714, 717, 719, 744, 746, 750, 752, 753
    4    1 H      17-28, 51-61, 81-91, 114-124, 146-156, 178-188, 209-220,
                  241-252, 276-286, 309-319, 339-349, 372-383, 400-411,
                  434-444, 464-474, 497-507, 529-539, 561-571, 592-603,
                  624-635, 659-669, 692-702, 722-732, 755-788
    5   15 P      29, 62, 92, 125, 157, 189, 221, 253, 287, 320, 350, 412,
                  445, 475, 508, 540, 572, 604, 636, 670, 703, 733

molecular fragmentation (1/2 indicates fragments):
111111111111111111111111111111111111111111111111111111111111111111111111
111111111111111111111111111111111111111111111111111111111111111111111111
111111111111111111111111111111111111111111111111111111111111111111111111
111111111111111111111111111111111111111111111111111111111111111111111111
111111111111111111111111111111111111111111111111111111111111111111111111
111111111111111111111112222222222222222222222222222222222222222222222222
222222222222222222222222222222222222222222222222222222222222222222222222
222222222222222222222222222222222222222222222222222222222222222222222222
222222222222222222222222222222222222222222222222222222222222222222222222
222222222222222222222222222222222222222222222222222222222222222222222222
22222222222222222222222222222222222222222222222222222222211111111111
# atoms in fragment 1/2:   394   394
 fragment masses (1/2) :     3702.41     3702.41
CMA distance (Bohr)    :   2.737
constraining FC (au)   :  0.0500

           -------------------------------------------------
          |                 G F N 2 - x T B                 |
           -------------------------------------------------

        Reference                      10.1021/acs.jctc.8b01176
      * Hamiltonian:
        H0-scaling (s, p, d)           1.850000    2.230000    2.230000
        zeta-weighting                 0.500000
      * Dispersion:
        s8                             2.700000
        a1                             0.520000
        a2                             5.000000
        s9                             5.000000
      * Repulsion:
        kExp                           1.500000    1.000000
        rExp                           1.000000
      * Coulomb:
        alpha                          2.000000
        third order                    shell-resolved
        anisotropic                    true
        a3                             3.000000
        a5                             4.000000
        cn-shift                       1.200000
        cn-exp                         4.000000
        max-rad                        5.000000

      * Solvation model:               GBSA
        Solvent                        water
        Parameter file                 internal GFN2-xTB/GBSA
        Dielectric constant                8.0200E+01
        Reference state                gsolv [1 M gas/solution]
        Free energy shift                  1.8574E-03 Eh       1.1656E+00 kcal/mol
        Temperature                        2.9815E+02 K
        Density                            1.0000E+00 kg/L
        Solvent mass                       1.8000E+01 g/mol
        Interaction kernel             Still
        Born radius scaling (c1)           1.5524E+00
        Born radii integrator          GBOBC
        Born offset                        2.4628E-02 a0       4.6540E-02 AA
        H-bond correction              true
        Ion screening                  false
        Surface tension                    1.0000E-05 Eh       1.5569E+01 dyn/cm
        Grid points                               230 per atom
q/qsh data taken from xtbrestart
CAMM data taken from xtbrestart

          ...................................................
          :                      SETUP                      :
          :.................................................:
          :  # basis functions                2402          :
          :  # atomic orbitals                2380          :
          :  # shells                         1304          :
          :  # electrons                      2672          :
          :  max. iterations                   250          :
          :  Hamiltonian                  GFN2-xTB          :
          :  restarted?                       true          :
          :  GBSA solvation                   true          :
          :  PC potential                    false          :
          :  electronic temp.          300.0000000     K    :
          :  accuracy                    1.0000000          :
          :  -> integral cutoff          0.2500000E+02      :
          :  -> integral neglect         0.1000000E-07      :
          :  -> SCF convergence          0.1000000E-05 Eh   :
          :  -> wf. convergence          0.1000000E-03 e    :
          :  Broyden damping             0.4000000          :
          ...................................................

 iter      E             dE          RMSdq      gap      omega  full diag
   1  -1585.4544136 -0.158545E+04  0.231E-01    1.94       0.0  T
   2  -1585.4700845 -0.156709E-01  0.910E-02    2.14       1.0  T
   3  -1585.4719841 -0.189959E-02  0.516E-02    2.07       1.0  T
   4  -1585.4724789 -0.494826E-03  0.284E-02    2.09       1.0  T
   5  -1585.4726988 -0.219861E-03  0.118E-02    2.10       1.0  T
   6  -1585.4727333 -0.345169E-04  0.664E-03    2.09       1.0  T
   7  -1585.4727430 -0.971646E-05  0.356E-03    2.09       1.0  T
   8  -1585.4727457 -0.266521E-05  0.194E-03    2.10       1.8  T
   9  -1585.4727465 -0.764462E-06  0.991E-04    2.10       3.6  T
  10  -1585.4727467 -0.246206E-06  0.530E-04    2.10       6.7  T

   *** convergence criteria satisfied after 10 iterations ***

         #    Occupation            Energy/Eh            Energy/eV
      -------------------------------------------------------------
         1        2.0000           -0.7884976             -21.4561
       ...           ...                  ...                  ...
      1330        2.0000           -0.3857355             -10.4964
      1331        2.0000           -0.3854119             -10.4876
      1332        2.0000           -0.3821875             -10.3999
      1333        2.0000           -0.3813123             -10.3760
      1334        2.0000           -0.3803480             -10.3498
      1335        2.0000           -0.3781523             -10.2900
      1336        2.0000           -0.3744232             -10.1886 (HOMO)
      1337                         -0.2973608              -8.0916 (LUMO)
      1338                         -0.2903225              -7.9001
      1339                         -0.2845960              -7.7443
      1340                         -0.2806783              -7.6376
      1341                         -0.2802062              -7.6248
       ...                                ...                  ...
      2380                          1.4995968              40.8061
      -------------------------------------------------------------
                  HL-Gap            0.0770624 Eh            2.0970 eV
             Fermi-level           -0.3358920 Eh           -9.1401 eV

 SCC (total)                   0 d,  0 h,  0 min, 10.996 sec
 SCC setup                      ...        0 min,  0.086 sec (  0.785%)
 Dispersion                     ...        0 min,  0.311 sec (  2.829%)
 classical contributions        ...        0 min,  0.004 sec (  0.037%)
 integral evaluation            ...        0 min,  0.660 sec (  6.007%)
 iterations                     ...        0 min,  7.424 sec ( 67.516%)
 molecular gradient             ...        0 min,  2.398 sec ( 21.806%)
 printout                       ...        0 min,  0.112 sec (  1.020%)

         :::::::::::::::::::::::::::::::::::::::::::::::::::::
         ::                     SUMMARY                     ::
         :::::::::::::::::::::::::::::::::::::::::::::::::::::
         :: total energy           -1569.779044948617 Eh    ::
         :: total w/o Gsasa/hb     -1569.521619389544 Eh    ::
         :: gradient norm              0.999365251593 Eh/a0 ::
         :: HOMO-LUMO gap              2.096973304427 eV    ::
         ::.................................................::
         :: SCC energy             -1585.472746706458 Eh    ::
         :: -> isotropic ES            5.473702489483 Eh    ::
         :: -> anisotropic ES         -0.357300538300 Eh    ::
         :: -> anisotropic XC          0.274375210107 Eh    ::
         :: -> dispersion             -1.404864047118 Eh    ::
         :: -> Gsolv                  -0.928222782044 Eh    ::
         ::    -> Gelec               -0.670797222970 Eh    ::
         ::    -> Gsasa               -0.016756927960 Eh    ::
         ::    -> Ghb                 -0.242526074240 Eh    ::
         ::    -> Gshift               0.001857443127 Eh    ::
         :: repulsion energy          15.562453126740 Eh    ::
         :: add. restraining           0.000000000000 Eh    ::
         :: total charge              -0.000000000000 e     ::
         :::::::::::::::::::::::::::::::::::::::::::::::::::::

           -------------------------------------------------
          |                Property Printout                |
           -------------------------------------------------

    * Orbital Energies and Occupations

         #    Occupation            Energy/Eh            Energy/eV
      -------------------------------------------------------------
         1        2.0000           -0.7884976             -21.4561
       ...           ...                  ...                  ...
      1324        2.0000           -0.3933095             -10.7025
      1325        2.0000           -0.3909400             -10.6380
      1326        2.0000           -0.3902772             -10.6200
      1327        2.0000           -0.3890245             -10.5859
      1328        2.0000           -0.3889800             -10.5847
      1329        2.0000           -0.3885402             -10.5727
      1330        2.0000           -0.3857355             -10.4964
      1331        2.0000           -0.3854119             -10.4876
      1332        2.0000           -0.3821875             -10.3999
      1333        2.0000           -0.3813123             -10.3760
      1334        2.0000           -0.3803480             -10.3498
      1335        2.0000           -0.3781523             -10.2900
      1336        2.0000           -0.3744232             -10.1886 (HOMO)
      1337                         -0.2973608              -8.0916 (LUMO)
      1338                         -0.2903225              -7.9001
      1339                         -0.2845960              -7.7443
      1340                         -0.2806783              -7.6376
      1341                         -0.2802062              -7.6248
      1342                         -0.2763799              -7.5207
      1343                         -0.2743792              -7.4662
      1344                         -0.2717009              -7.3934
      1345                         -0.2709697              -7.3735
      1346                         -0.2704058              -7.3581
      1347                         -0.2698243              -7.3423
       ...                                ...                  ...
      2380                          1.4995968              40.8061
      -------------------------------------------------------------
                  HL-Gap            0.0770624 Eh            2.0970 eV
             Fermi-level           -0.3358920 Eh           -9.1401 eV

 * generalized Born model for continuum solvation

     #   Z     Born rad/Å   SASA/Å²    H-bond
     1   8 O        2.269     7.938    -0.001
     2   6 C        2.709     1.164    -0.000
     3   6 C        3.133     0.265    -0.000
     4   8 O        2.831     8.565    -0.001
     5   6 C        3.230     0.157    -0.000
     6   8 O        2.610     5.136    -0.001
     7   6 C        3.272     0.429    -0.000
     8   6 C        3.416     0.811    -0.000
     9   7 N        3.390     0.409    -0.000
    10   6 C        3.312     4.141    -0.000
    11   8 O        2.508    10.744    -0.001
    12   7 N        3.184     1.944    -0.001
    13   6 C        3.396     4.723    -0.000
    14   7 N        2.593     3.179    -0.001
    15   6 C        3.058     7.274    -0.000
    16   6 C        3.095     5.198    -0.000
    17   1 H        2.041    19.163    -0.026
    18   1 H        2.054    17.938    -0.024
    19   1 H        2.154    15.390    -0.021
    20   1 H        2.223     7.542    -0.010
    21   1 H        2.366     7.432    -0.010
    22   1 H        2.425     0.523    -0.001
    23   1 H        2.304     9.184    -0.012
    24   1 H        2.532     0.687    -0.001
    25   1 H        2.174    19.644    -0.026
    26   1 H        2.092    18.280    -0.024
    27   1 H        2.195     9.966    -0.013
    28   1 H        1.908    23.375    -0.031
    29  15 P        3.187     9.017    -0.001
    30   8 O        2.210    13.975    -0.002
    31   8 O        2.172    25.343    -0.003
    32   8 O        2.624     2.510    -0.000
    33   6 C        2.869     0.355    -0.000
    34   6 C        3.344     0.107    -0.000
    35   8 O        3.078     3.500    -0.000
    36   6 C        3.321     0.226    -0.000
    37   8 O        2.699     4.958    -0.001
    38   6 C        3.397     0.231    -0.000
    39   6 C        3.778     0.247    -0.000
    40   7 N        4.042     0.006    -0.000
    41   6 C        3.291     2.249    -0.000
    42   7 N        2.917    10.217    -0.003
    43   6 C        4.344     0.023    -0.000
    44   6 C        3.723     0.072    -0.000
    45   8 O        2.739     7.572    -0.001
    46   7 N        3.759     0.001    -0.000
    47   6 C        4.129     0.005    -0.000
    48   7 N        2.843     0.638    -0.000
    49   7 N        3.344     2.947    -0.001
    50   6 C        4.605     0.081    -0.000
    51   1 H        2.202     9.711    -0.013
    52   1 H        2.153    12.409    -0.017
    53   1 H        2.271    13.060    -0.017
    54   1 H        2.263    10.257    -0.014
    55   1 H        2.399     8.881    -0.012
    56   1 H        2.441     2.001    -0.003
    57   1 H        2.613     3.238    -0.004
    58   1 H        2.284     9.588    -0.013
    59   1 H        3.562     0.015    -0.000
    60   1 H        2.780     1.459    -0.002
    61   1 H        2.304    16.204    -0.022
    62  15 P        3.270     6.651    -0.001
    63   8 O        2.220    12.676    -0.002
    64   8 O        2.236    21.824    -0.003
    65   8 O        2.721     0.756    -0.000
    66   6 C        2.948     0.360    -0.000
    67   6 C        3.328     0.349    -0.000
    68   8 O        3.105     4.267    -0.001
    69   6 C        3.403     0.254    -0.000
    70   8 O        2.717     4.309    -0.001
    71   6 C        3.378     0.690    -0.000
    72   6 C        3.811     0.113    -0.000
    73   7 N        3.880     0.001    -0.000
    74   6 C        3.754     0.009    -0.000
    75   8 O        2.699     7.301    -0.001
    76   7 N        3.791     0.000    -0.000
    77   6 C        4.190     0.046    -0.000
    78   7 N        2.885     0.214    -0.000
    79   6 C        3.611     1.099    -0.000
    80   6 C        3.554     1.283    -0.000
    81   1 H        2.307     5.463    -0.007
    82   1 H        2.180    13.519    -0.018
    83   1 H        2.198    16.321    -0.022
    84   1 H        2.316     8.806    -0.012
    85   1 H        2.426     7.456    -0.010
    86   1 H        2.371     3.588    -0.005
    87   1 H        2.572     3.048    -0.004
    88   1 H        2.916     0.602    -0.001
    89   1 H        2.352    13.154    -0.018
    90   1 H        2.311    10.274    -0.014
    91   1 H        2.477     2.725    -0.004
    92  15 P        3.223     7.827    -0.001
    93   8 O        2.197    24.545    -0.003
    94   8 O        2.253    10.109    -0.001
    95   8 O        2.672     2.647    -0.000
    96   6 C        2.908     0.522    -0.000
    97   6 C        3.487     0.054    -0.000
    98   8 O        3.261     0.245    -0.000
    99   6 C        3.368     0.160    -0.000
   100   8 O        2.738     4.546    -0.001
   101   6 C        3.374     0.513    -0.000
   102   6 C        3.881     0.084    -0.000
   103   7 N        4.140     0.000     0.000
   104   6 C        3.320     3.216    -0.000
   105   7 N        2.971    10.949    -0.003
   106   6 C        4.732     0.025    -0.000
   107   6 C        4.024     0.022    -0.000
   108   8 O        2.697     7.372    -0.001
   109   7 N        4.143     0.000     0.000
   110   6 C        4.686     0.002    -0.000
   111   7 N        3.037     0.310    -0.000
   112   7 N        3.794     1.462    -0.000
   113   6 C        5.061     0.016    -0.000
   114   1 H        2.239     9.171    -0.012
   115   1 H        2.133    15.554    -0.021
   116   1 H        2.393    10.555    -0.014
   117   1 H        2.242    10.631    -0.014
   118   1 H        2.333     9.839    -0.013
   119   1 H        2.448     3.309    -0.004
   120   1 H        2.734     2.343    -0.003
   121   1 H        2.270    12.772    -0.017
   122   1 H        3.598     0.000     0.000
   123   1 H        2.692     6.166    -0.008
   124   1 H        2.481     9.665    -0.013
   125  15 P        3.301     5.904    -0.001
   126   8 O        2.203    25.136    -0.003
   127   8 O        2.305     8.805    -0.001
   128   8 O        2.835     0.041    -0.000
   129   6 C        3.010     0.476    -0.000
   130   6 C        3.385     0.313    -0.000
   131   8 O        3.188     1.826    -0.000
   132   6 C        3.443     0.314    -0.000
   133   8 O        2.689     5.152    -0.001
   134   6 C        3.514     0.180    -0.000
   135   6 C        3.896     0.019    -0.000
   136   7 N        4.358     0.000     0.000
   137   6 C        3.524     2.552    -0.000
   138   7 N        3.095     8.577    -0.003
   139   6 C        5.042     0.010    -0.000
   140   6 C        4.552     0.000     0.000
   141   7 N        2.831     0.642    -0.000
   142   7 N        3.986     0.000     0.000
   143   6 C        3.844     0.115    -0.000
   144   7 N        3.387     3.339    -0.001
   145   6 C        5.242     0.000     0.000
   146   1 H        2.245     8.872    -0.012
   147   1 H        2.189    12.945    -0.017
   148   1 H        2.218    16.604    -0.022
   149   1 H        2.340     5.822    -0.008
   150   1 H        2.470     8.064    -0.011
   151   1 H        2.601     0.288    -0.000
   152   1 H        2.573     3.777    -0.005
   153   1 H        2.484     2.233    -0.003
   154   1 H        2.576     2.814    -0.004
   155   1 H        2.335    13.988    -0.019
   156   1 H        2.654     4.596    -0.006
   157  15 P        3.271     7.914    -0.001
   158   8 O        2.187    25.861    -0.004
   159   8 O        2.283    11.473    -0.002
   160   8 O        2.743     0.851    -0.000
   161   6 C        2.952     0.471    -0.000
   162   6 C        3.406     0.170    -0.000
   163   8 O        3.060     6.855    -0.001
   164   6 C        3.452     0.258    -0.000
   165   8 O        2.785     3.918    -0.001
   166   6 C        3.516     0.109    -0.000
   167   6 C        3.912     0.269    -0.000
   168   7 N        4.357     0.002    -0.000
   169   6 C        3.602     0.195    -0.000
   170   7 N        3.145     5.744    -0.002
   171   6 C        5.164     0.001    -0.000
   172   6 C        4.735     0.000    -0.000
   173   7 N        2.948     0.108    -0.000
   174   7 N        4.060     0.002    -0.000
   175   6 C        3.731     0.073    -0.000
   176   7 N        3.384     4.572    -0.001
   177   6 C        5.206     0.076    -0.000
   178   1 H        2.263     8.203    -0.011
   179   1 H        2.163    14.014    -0.019
   180   1 H        2.247    15.202    -0.020
   181   1 H        2.350     7.326    -0.010
   182   1 H        2.514     4.282    -0.006
   183   1 H        2.535     1.407    -0.002
   184   1 H        2.665     3.964    -0.005
   185   1 H        2.495     4.020    -0.005
   186   1 H        2.799     0.984    -0.001
   187   1 H        2.379    12.544    -0.017
   188   1 H        2.588     4.017    -0.005
   189  15 P        3.237    10.736    -0.001
   190   8 O        2.189    26.155    -0.004
   191   8 O        2.269    14.536    -0.002
   192   8 O        2.718     2.549    -0.000
   193   6 C        2.952     0.520    -0.000
   194   6 C        3.464     0.140    -0.000
   195   8 O        3.424     0.240    -0.000
   196   6 C        3.461     0.141    -0.000
   197   8 O        2.676     5.601    -0.001
   198   6 C        3.637     0.001    -0.000
   199   6 C        4.020     0.006    -0.000
   200   7 N        4.235     0.000     0.000
   201   6 C        4.132     0.000    -0.000
   202   8 O        2.861     2.307    -0.000
   203   7 N        3.700     0.000     0.000
   204   6 C        3.722     0.039    -0.000
   205   8 O        2.651     7.139    -0.001
   206   6 C        4.024     0.007    -0.000
   207   6 C        2.814     2.435    -0.000
   208   6 C        3.769     0.014    -0.000
   209   1 H        2.313     8.023    -0.011
   210   1 H        2.155    15.371    -0.021
   211   1 H        2.313    13.228    -0.018
   212   1 H        2.318     8.013    -0.011
   213   1 H        2.624     1.325    -0.002
   214   1 H        2.750     0.000    -0.000
   215   1 H        2.637     5.477    -0.007
   216   1 H        3.489     0.000    -0.000
   217   1 H        2.239     9.470    -0.013
   218   1 H        2.148    17.230    -0.023
   219   1 H        2.247    11.100    -0.015
   220   1 H        2.499     4.004    -0.005
   221  15 P        3.278    10.007    -0.001
   222   8 O        2.197    24.775    -0.003
   223   8 O        2.284    14.294    -0.002
   224   8 O        2.788     1.179    -0.000
   225   6 C        2.962     0.409    -0.000
   226   6 C        3.426     0.218    -0.000
   227   8 O        3.229     2.955    -0.000
   228   6 C        3.349     0.447    -0.000
   229   8 O        2.767     3.224    -0.000
   230   6 C        3.387     0.891    -0.000
   231   6 C        3.934     0.122    -0.000
   232   7 N        4.032     0.000    -0.000
   233   6 C        3.910     0.003    -0.000
   234   8 O        2.808     3.610    -0.000
   235   7 N        3.649     0.001    -0.000
   236   6 C        3.847     0.000    -0.000
   237   8 O        2.674     6.526    -0.001
   238   6 C        4.161     0.000     0.000
   239   6 C        2.901     1.798    -0.000
   240   6 C        3.771     0.000     0.000
   241   1 H        2.269     9.982    -0.013
   242   1 H        2.188    12.651    -0.017
   243   1 H        2.257    15.600    -0.021
   244   1 H        2.189    10.588    -0.014
   245   1 H        2.411     3.753    -0.005
   246   1 H        2.371     2.416    -0.003
   247   1 H        2.604     3.853    -0.005
   248   1 H        3.603     0.012    -0.000
   249   1 H        2.268     8.148    -0.011
   250   1 H        2.377     4.030    -0.005
   251   1 H        2.275     6.924    -0.009
   252   1 H        2.544     0.481    -0.001
   253  15 P        3.236     9.427    -0.001
   254   8 O        2.208    24.554    -0.003
   255   8 O        2.243    13.611    -0.002
   256   8 O        2.665     1.875    -0.000
   257   6 C        2.951     0.489    -0.000
   258   6 C        3.468     0.179    -0.000
   259   8 O        3.119     0.243    -0.000
   260   6 C        3.359     0.105    -0.000
   261   8 O        2.802     0.687    -0.000
   262   6 C        3.206     1.260    -0.000
   263   6 C        3.710     0.034    -0.000
   264   7 N        3.891     0.249    -0.000
   265   6 C        3.834     0.006    -0.000
   266   7 N        3.290     0.104    -0.000
   267   6 C        4.218     2.672    -0.000
   268   6 C        3.277     4.218    -0.000
   269   8 O        2.358    23.570    -0.003
   270   7 N        3.088     2.294    -0.001
   271   6 C        3.531     4.013    -0.000
   272   7 N        2.563     3.552    -0.001
   273   7 N        3.071     3.981    -0.001
   274   6 C        4.257     2.938    -0.000
   275   8 O        2.961     1.137    -0.000
   276   1 H        2.289     6.953    -0.009
   277   1 H        2.172    11.349    -0.015
   278   1 H        2.351    11.675    -0.016
   279   1 H        2.268     8.772    -0.012
   280   1 H        2.287     8.933    -0.012
   281   1 H        2.225    10.411    -0.014
   282   1 H        2.616     3.473    -0.005
   283   1 H        2.666     1.187    -0.002
   284   1 H        2.354    11.717    -0.016
   285   1 H        2.224    17.115    -0.023
   286   1 H        2.144    19.436    -0.026
   287  15 P        3.219     8.534    -0.001
   288   8 O        2.188    23.848    -0.003
   289   8 O        2.260    12.802    -0.002
   290   8 O        2.551     7.535    -0.001
   291   6 C        2.870     0.430    -0.000
   292   6 C        3.262     0.317    -0.000
   293   8 O        3.057     5.814    -0.001
   294   6 C        3.297     0.399    -0.000
   295   8 O        2.685     4.266    -0.001
   296   6 C        3.366     0.388    -0.000
   297   6 C        3.716     0.485    -0.000
   298   7 N        4.016     0.278    -0.000
   299   6 C        3.309     2.142    -0.000
   300   7 N        2.902    12.795    -0.004
   301   6 C        4.372     0.116    -0.000
   302   6 C        3.757     0.124    -0.000
   303   8 O        2.639    11.321    -0.002
   304   7 N        3.991     0.000    -0.000
   305   6 C        4.630     0.001    -0.000
   306   7 N        3.087     0.350    -0.000
   307   7 N        3.641     1.064    -0.000
   308   6 C        4.696     0.025    -0.000
   309   1 H        2.116    15.350    -0.021
   310   1 H        2.253     4.356    -0.006
   311   1 H        2.196    15.316    -0.020
   312   1 H        2.209    10.896    -0.015
   313   1 H        2.363     9.162    -0.012
   314   1 H        2.477     0.864    -0.001
   315   1 H        2.526     4.129    -0.006
   316   1 H        2.319     5.991    -0.008
   317   1 H        3.939     0.000    -0.000
   318   1 H        2.912     0.608    -0.001
   319   1 H        2.564     8.281    -0.011
   320  15 P        3.241     8.405    -0.001
   321   8 O        2.227    14.363    -0.002
   322   8 O        2.218    23.045    -0.003
   323   8 O        2.819     0.268    -0.000
   324   6 C        3.027     0.449    -0.000
   325   6 C        3.402     0.344    -0.000
   326   8 O        3.228     1.956    -0.000
   327   6 C        3.451     0.070    -0.000
   328   8 O        2.704     4.574    -0.001
   329   6 C        3.443     0.299    -0.000
   330   6 C        3.865     0.002    -0.000
   331   7 N        4.137     0.000     0.000
   332   6 C        3.979     0.000     0.000
   333   8 O        2.933     4.453    -0.001
   334   7 N        3.866     0.000     0.000
   335   6 C        3.946     0.452    -0.000
   336   7 N        2.706     0.929    -0.000
   337   6 C        3.469     3.022    -0.000
   338   6 C        3.624     1.159    -0.000
   339   1 H        2.312     6.419    -0.009
   340   1 H        2.209    12.026    -0.016
   341   1 H        2.220    16.402    -0.022
   342   1 H        2.353     4.672    -0.006
   343   1 H        2.478     5.417    -0.007
   344   1 H        2.505     0.097    -0.000
   345   1 H        2.489     7.057    -0.009
   346   1 H        2.618     1.342    -0.002
   347   1 H        2.234    17.397    -0.023
   348   1 H        2.241    11.063    -0.015
   349   1 H        2.544     1.765    -0.002
   350  15 P        3.214     7.546    -0.001
   351   8 O        2.193    24.855    -0.003
   352   8 O        2.261    10.066    -0.001
   353   8 O        2.652     1.227    -0.000
   354   6 C        2.867     0.879    -0.000
   355   6 C        3.205     0.356    -0.000
   356   8 O        2.943     7.598    -0.001
   357   6 C        3.088     1.111    -0.000
   358   8 O        2.289    17.245    -0.002
   359   6 C        3.105     0.885    -0.000
   360   6 C        3.389     0.589    -0.000
   361   7 N        3.630     0.335    -0.000
   362   6 C        3.257     4.580    -0.000
   363   7 N        2.885    11.021    -0.003
   364   6 C        4.005     3.094    -0.000
   365   6 C        3.459     4.425    -0.000
   366   8 O        2.592     9.861    -0.001
   367   7 N        3.361     1.598    -0.000
   368   6 C        3.586     4.424    -0.000
   369   7 N        2.632     4.237    -0.001
   370   7 N        2.999     9.439    -0.003
   371   6 C        4.054     3.000    -0.000
   372   1 H        2.233     8.152    -0.011
   373   1 H        2.117    15.077    -0.020
   374   1 H        2.190    14.831    -0.020
   375   1 H        2.153    13.943    -0.019
   376   1 H        2.022    14.007    -0.019
   377   1 H        2.338     6.886    -0.009
   378   1 H        2.137    17.759    -0.024
   379   1 H        2.298    10.808    -0.014
   380   1 H        2.346     7.039    -0.009
   381   1 H        3.016     2.700    -0.004
   382   1 H        2.439     6.272    -0.008
   383   1 H        2.168    21.930    -0.029
   384   8 O        2.255    18.550    -0.003
   385   6 C        2.706     2.033    -0.000
   386   6 C        3.240     0.218    -0.000
   387   8 O        2.942     7.665    -0.001
   388   6 C        3.320     0.095    -0.000
   389   8 O        2.686     3.371    -0.000
   390   6 C        3.336     0.018    -0.000
   391   6 C        3.539     0.326    -0.000
   392   7 N        3.473     0.526    -0.000
   393   6 C        3.416     3.678    -0.000
   394   8 O        2.552     8.929    -0.001
   395   7 N        3.204     2.007    -0.001
   396   6 C        3.458     3.436    -0.000
   397   7 N        2.580     3.969    -0.001
   398   6 C        3.106     7.266    -0.000
   399   6 C        3.120     4.819    -0.000
   400   1 H        2.041    19.735    -0.026
   401   1 H        2.057    18.282    -0.024
   402   1 H        2.224    12.556    -0.017
   403   1 H        2.295     7.300    -0.010
   404   1 H        2.392     6.252    -0.008
   405   1 H        2.560     0.001    -0.000
   406   1 H        2.419     7.053    -0.009
   407   1 H        2.469     3.607    -0.005
   408   1 H        2.174    18.591    -0.025
   409   1 H        2.115    17.518    -0.023
   410   1 H        2.200    10.549    -0.014
   411   1 H        2.058     9.010    -0.012
   412  15 P        3.214     9.657    -0.001
   413   8 O        2.224    14.539    -0.002
   414   8 O        2.211    22.844    -0.003
   415   8 O        2.699     1.863    -0.000
   416   6 C        2.881     0.596    -0.000
   417   6 C        3.301     0.264    -0.000
   418   8 O        3.068     3.629    -0.000
   419   6 C        3.317     0.347    -0.000
   420   8 O        2.747     3.159    -0.000
   421   6 C        3.322     0.550    -0.000
   422   6 C        3.682     0.286    -0.000
   423   7 N        3.969     0.001    -0.000
   424   6 C        3.347     1.527    -0.000
   425   7 N        2.897    10.604    -0.003
   426   6 C        4.373     0.012    -0.000
   427   6 C        3.798     0.032    -0.000
   428   8 O        2.719     7.295    -0.001
   429   7 N        3.808     0.000    -0.000
   430   6 C        4.182     0.002    -0.000
   431   7 N        2.892     0.349    -0.000
   432   7 N        3.386     3.150    -0.001
   433   6 C        4.628     0.012    -0.000
   434   1 H        2.223     8.599    -0.011
   435   1 H        2.131    13.282    -0.018
   436   1 H        2.215    14.979    -0.020
   437   1 H        2.233    10.959    -0.015
   438   1 H        2.376     8.254    -0.011
   439   1 H        2.365     3.507    -0.005
   440   1 H        2.523     3.512    -0.005
   441   1 H        2.337     8.378    -0.011
   442   1 H        3.602     0.000    -0.000
   443   1 H        2.837     1.186    -0.002
   444   1 H        2.349    13.996    -0.019
   445  15 P        3.252     6.761    -0.001
   446   8 O        2.255     9.762    -0.001
   447   8 O        2.213    23.355    -0.003
   448   8 O        2.743     0.282    -0.000
   449   6 C        2.936     0.363    -0.000
   450   6 C        3.349     0.224    -0.000
   451   8 O        3.097     2.938    -0.000
   452   6 C        3.364     0.348    -0.000
   453   8 O        2.697     4.150    -0.001
   454   6 C        3.309     0.787    -0.000
   455   6 C        3.699     0.124    -0.000
   456   7 N        3.747     0.004    -0.000
   457   6 C        3.776     0.000    -0.000
   458   8 O        2.758     7.096    -0.001
   459   7 N        3.770     0.000    -0.000
   460   6 C        4.006     0.606    -0.000
   461   7 N        2.800     1.684    -0.001
   462   6 C        3.518     3.375    -0.000
   463   6 C        3.486     2.186    -0.000
   464   1 H        2.222    10.212    -0.014
   465   1 H        2.190    11.982    -0.016
   466   1 H        2.231    15.643    -0.021
   467   1 H        2.264     9.390    -0.013
   468   1 H        2.364     8.459    -0.011
   469   1 H        2.311     3.602    -0.005
   470   1 H        2.501     2.626    -0.004
   471   1 H        2.848     0.876    -0.001
   472   1 H        2.320    14.862    -0.020
   473   1 H        2.276     9.897    -0.013
   474   1 H        2.442     2.200    -0.003
   475  15 P        3.228     6.815    -0.001
   476   8 O        2.211    13.004    -0.002
   477   8 O        2.222    22.164    -0.003
   478   8 O        2.663     0.810    -0.000
   479   6 C        2.882     0.640    -0.000
   480   6 C        3.407     0.146    -0.000
   481   8 O        3.182     3.006    -0.000
   482   6 C        3.319     0.293    -0.000
   483   8 O        2.744     3.757    -0.001
   484   6 C        3.299     1.047    -0.000
   485   6 C        3.833     0.156    -0.000
   486   7 N        4.040    -0.015     0.000
   487   6 C        3.308     4.131    -0.000
   488   7 N        3.009     9.798    -0.003
   489   6 C        4.509     0.131    -0.000
   490   6 C        3.903     0.078    -0.000
   491   8 O        2.785     6.174    -0.001
   492   7 N        3.755     0.000    -0.000
   493   6 C        4.304     0.107    -0.000
   494   7 N        2.856     1.999    -0.001
   495   7 N        3.534     2.478    -0.001
   496   6 C        4.756     0.344    -0.000
   497   1 H        2.219     9.342    -0.012
   498   1 H        2.130    15.313    -0.020
   499   1 H        2.281    13.907    -0.019
   500   1 H        2.201    12.469    -0.017
   501   1 H        2.315     9.789    -0.013
   502   1 H        2.366     4.449    -0.006
   503   1 H        2.796     1.225    -0.002
   504   1 H        2.293     9.626    -0.013
   505   1 H        3.226     0.001    -0.000
   506   1 H        2.416    10.532    -0.014
   507   1 H        2.473     9.555    -0.013
   508  15 P        3.280     4.851    -0.001
   509   8 O        2.233    11.728    -0.002
   510   8 O        2.244    20.943    -0.003
   511   8 O        2.771     0.021    -0.000
   512   6 C        2.933     0.604    -0.000
   513   6 C        3.324     0.329    -0.000
   514   8 O        3.220     0.789    -0.000
   515   6 C        3.331     0.401    -0.000
   516   8 O        2.630     5.321    -0.001
   517   6 C        3.368     0.534    -0.000
   518   6 C        3.872     0.013    -0.000
   519   7 N        4.274     0.010    -0.000
   520   6 C        3.477     2.583    -0.000
   521   7 N        3.023     9.001    -0.003
   522   6 C        4.874     0.006    -0.000
   523   6 C        4.385     0.028    -0.000
   524   7 N        2.875     1.027    -0.000
   525   7 N        4.000     0.021    -0.000
   526   6 C        3.580     0.524    -0.000
   527   7 N        3.291     3.670    -0.001
   528   6 C        5.089     0.000    -0.000
   529   1 H        2.230     9.194    -0.012
   530   1 H        2.174    12.963    -0.017
   531   1 H        2.177    16.464    -0.022
   532   1 H        2.266     8.938    -0.012
   533   1 H        2.415     7.824    -0.010
   534   1 H        2.404     1.789    -0.002
   535   1 H        2.634     3.163    -0.004
   536   1 H        2.429     3.689    -0.005
   537   1 H        2.805     0.889    -0.001
   538   1 H        2.352    13.770    -0.018
   539   1 H        2.507     7.270    -0.010
   540  15 P        3.234     6.806    -0.001
   541   8 O        2.231    11.423    -0.002
   542   8 O        2.250    20.925    -0.003
   543   8 O        2.683     0.940    -0.000
   544   6 C        2.920     0.445    -0.000
   545   6 C        3.302     0.191    -0.000
   546   8 O        3.039     5.192    -0.001
   547   6 C        3.348     0.126    -0.000
   548   8 O        2.664     4.618    -0.001
   549   6 C        3.368     0.223    -0.000
   550   6 C        3.746     0.462    -0.000
   551   7 N        4.184     0.004    -0.000
   552   6 C        3.467     0.520    -0.000
   553   7 N        3.038     8.608    -0.003
   554   6 C        4.916     0.033    -0.000
   555   6 C        4.543     0.002    -0.000
   556   7 N        2.898     0.318    -0.000
   557   7 N        4.035     0.000    -0.000
   558   6 C        3.787     0.072    -0.000
   559   7 N        3.378     3.868    -0.001
   560   6 C        4.946     0.068    -0.000
   561   1 H        2.199    11.091    -0.015
   562   1 H        2.156    13.379    -0.018
   563   1 H        2.217    15.237    -0.020
   564   1 H        2.247     9.487    -0.013
   565   1 H        2.399     5.599    -0.007
   566   1 H        2.454     0.746    -0.001
   567   1 H        2.478     5.970    -0.008
   568   1 H        2.396     5.840    -0.008
   569   1 H        2.677     2.237    -0.003
   570   1 H        2.354    14.067    -0.019
   571   1 H        2.717     2.763    -0.004
   572  15 P        3.251     7.327    -0.001
   573   8 O        2.233    11.134    -0.002
   574   8 O        2.223    23.057    -0.003
   575   8 O        2.690     2.590    -0.000
   576   6 C        2.909     0.542    -0.000
   577   6 C        3.401     0.078    -0.000
   578   8 O        3.187     2.581    -0.000
   579   6 C        3.429     0.056    -0.000
   580   8 O        2.690     4.103    -0.001
   581   6 C        3.554     0.001    -0.000
   582   6 C        3.904     0.143    -0.000
   583   7 N        4.017     0.001    -0.000
   584   6 C        3.928     0.017    -0.000
   585   8 O        2.744     5.089    -0.001
   586   7 N        3.621     0.000    -0.000
   587   6 C        3.833     0.000    -0.000
   588   8 O        2.709     5.223    -0.001
   589   6 C        3.962     0.000     0.000
   590   6 C        2.778     2.401    -0.000
   591   6 C        3.700     0.000    -0.000
   592   1 H        2.238     9.945    -0.013
   593   1 H        2.151    14.596    -0.020
   594   1 H        2.336    12.925    -0.017
   595   1 H        2.323     8.920    -0.012
   596   1 H        2.648     0.519    -0.001
   597   1 H        2.717     0.000     0.000
   598   1 H        2.573     8.598    -0.011
   599   1 H        3.459     0.001    -0.000
   600   1 H        2.158    12.805    -0.017
   601   1 H        2.190    12.362    -0.017
   602   1 H        2.195    10.638    -0.014
   603   1 H        2.488     2.644    -0.004
   604  15 P        3.257     8.463    -0.001
   605   8 O        2.226    12.000    -0.002
   606   8 O        2.230    21.895    -0.003
   607   8 O        2.736     1.913    -0.000
   608   6 C        2.983     0.363    -0.000
   609   6 C        3.458     0.121    -0.000
   610   8 O        3.137     4.151    -0.001
   611   6 C        3.428     0.317    -0.000
   612   8 O        2.800     2.196    -0.000
   613   6 C        3.585     0.021    -0.000
   614   6 C        4.013     0.097    -0.000
   615   7 N        4.049     0.000     0.000
   616   6 C        3.947     0.009    -0.000
   617   8 O        2.780     3.236    -0.000
   618   7 N        3.536     0.000     0.000
   619   6 C        3.742     0.131    -0.000
   620   8 O        2.636     5.727    -0.001
   621   6 C        4.221     0.000    -0.000
   622   6 C        2.892     1.876    -0.000
   623   6 C        3.827     0.000    -0.000
   624   1 H        2.294     8.866    -0.012
   625   1 H        2.179    13.777    -0.018
   626   1 H        2.291    15.236    -0.020
   627   1 H        2.272    11.062    -0.015
   628   1 H        2.588     0.855    -0.001
   629   1 H        2.604     0.025    -0.000
   630   1 H        2.763     2.308    -0.003
   631   1 H        3.349     0.000     0.000
   632   1 H        2.302     5.759    -0.008
   633   1 H        2.250    10.426    -0.014
   634   1 H        2.240     9.431    -0.013
   635   1 H        2.581     0.630    -0.001
   636  15 P        3.261     6.101    -0.001
   637   8 O        2.228    20.723    -0.003
   638   8 O        2.299    13.563    -0.002
   639   8 O        2.629     6.648    -0.001
   640   6 C        2.931     1.254    -0.000
   641   6 C        3.540     0.161    -0.000
   642   8 O        3.288     0.857    -0.000
   643   6 C        3.503     0.047    -0.000
   644   8 O        2.812     2.030    -0.000
   645   6 C        3.284     1.210    -0.000
   646   6 C        3.873     0.050    -0.000
   647   7 N        4.051     0.062    -0.000
   648   6 C        3.912     0.016    -0.000
   649   7 N        3.320     0.677    -0.000
   650   6 C        4.278     3.593    -0.000
   651   6 C        3.328     4.149    -0.000
   652   8 O        2.408    19.799    -0.003
   653   7 N        3.051     2.719    -0.001
   654   6 C        3.494     6.329    -0.000
   655   7 N        2.571     6.038    -0.002
   656   7 N        3.251     3.101    -0.001
   657   6 C        4.413     2.645    -0.000
   658   8 O        2.957     1.471    -0.000
   659   1 H        2.340     6.220    -0.008
   660   1 H        2.178    16.004    -0.021
   661   1 H        2.426     8.996    -0.012
   662   1 H        2.330     4.917    -0.007
   663   1 H        2.380     4.452    -0.006
   664   1 H        2.249    11.610    -0.016
   665   1 H        2.698     4.152    -0.006
   666   1 H        2.579     1.577    -0.002
   667   1 H        2.307    14.454    -0.019
   668   1 H        2.200    16.685    -0.022
   669   1 H        2.234    13.047    -0.017
   670  15 P        3.263     6.216    -0.001
   671   8 O        2.257    12.729    -0.002
   672   8 O        2.229    21.938    -0.003
   673   8 O        2.540     8.224    -0.001
   674   6 C        2.907     0.474    -0.000
   675   6 C        3.236     0.580    -0.000
   676   8 O        2.882    11.714    -0.002
   677   6 C        3.387     0.433    -0.000
   678   8 O        2.732     4.203    -0.001
   679   6 C        3.486     0.213    -0.000
   680   6 C        3.600     0.765    -0.000
   681   7 N        3.897     1.035    -0.000
   682   6 C        3.393     2.781    -0.000
   683   7 N        3.064     5.063    -0.002
   684   6 C        4.469     0.072    -0.000
   685   6 C        3.998     0.033    -0.000
   686   8 O        2.957     2.998    -0.000
   687   7 N        3.891     0.007    -0.000
   688   6 C        4.034     0.407    -0.000
   689   7 N        2.764     3.431    -0.001
   690   7 N        3.227     6.042    -0.002
   691   6 C        4.477     1.900    -0.000
   692   1 H        2.163    13.509    -0.018
   693   1 H        2.364     3.478    -0.005
   694   1 H        2.134    17.841    -0.024
   695   1 H        2.297     8.775    -0.012
   696   1 H        2.530     5.990    -0.008
   697   1 H        2.548     0.773    -0.001
   698   1 H        2.420     4.642    -0.006
   699   1 H        2.434     3.315    -0.004
   700   1 H        3.632     0.013    -0.000
   701   1 H        2.627     3.038    -0.004
   702   1 H        2.250    17.786    -0.024
   703  15 P        3.259     9.410    -0.001
   704   8 O        2.207    15.363    -0.002
   705   8 O        2.240    21.192    -0.003
   706   8 O        2.686     1.422    -0.000
   707   6 C        2.973     0.256    -0.000
   708   6 C        3.255     0.556    -0.000
   709   8 O        3.046     2.675    -0.000
   710   6 C        3.412     0.054    -0.000
   711   8 O        2.707     4.630    -0.001
   712   6 C        3.347     0.542    -0.000
   713   6 C        3.670     0.032    -0.000
   714   7 N        3.806     0.000    -0.000
   715   6 C        3.720     0.006    -0.000
   716   8 O        2.756     6.028    -0.001
   717   7 N        3.736     0.002    -0.000
   718   6 C        3.950     0.181    -0.000
   719   7 N        2.749     0.869    -0.000
   720   6 C        3.450     2.381    -0.000
   721   6 C        3.511     0.779    -0.000
   722   1 H        2.272     7.489    -0.010
   723   1 H        2.205     9.933    -0.013
   724   1 H        2.152    17.779    -0.024
   725   1 H        2.392     5.002    -0.007
   726   1 H        2.392     6.090    -0.008
   727   1 H        2.464     0.180    -0.000
   728   1 H        2.402     7.132    -0.010
   729   1 H        2.786     0.736    -0.001
   730   1 H        2.258    16.904    -0.023
   731   1 H        2.245    11.731    -0.016
   732   1 H        2.489     2.819    -0.004
   733  15 P        3.226     9.495    -0.001
   734   8 O        2.225    14.904    -0.002
   735   8 O        2.200    24.276    -0.003
   736   8 O        2.619     3.315    -0.000
   737   6 C        2.909     0.515    -0.000
   738   6 C        3.209     0.423    -0.000
   739   8 O        2.970     6.724    -0.001
   740   6 C        3.091     0.598    -0.000
   741   8 O        2.281    13.527    -0.002
   742   6 C        3.139     0.736    -0.000
   743   6 C        3.452     0.288    -0.000
   744   7 N        3.659     0.338    -0.000
   745   6 C        3.212     4.260    -0.000
   746   7 N        2.785    13.540    -0.004
   747   6 C        3.920     2.395    -0.000
   748   6 C        3.347     4.388    -0.000
   749   8 O        2.481    16.568    -0.002
   750   7 N        3.347     2.125    -0.001
   751   6 C        3.733     2.661    -0.000
   752   7 N        2.719     3.748    -0.001
   753   7 N        3.074     8.363    -0.003
   754   6 C        4.038     3.292    -0.000
   755   1 H        2.296     5.892    -0.008
   756   1 H        2.171    11.114    -0.015
   757   1 H        2.169    14.544    -0.019
   758   1 H        2.137    15.017    -0.020
   759   1 H        1.933    20.911    -0.028
   760   1 H        2.361     5.752    -0.008
   761   1 H        2.152    17.636    -0.024
   762   1 H        2.383    11.352    -0.015
   763   1 H        2.320     9.081    -0.012
   764   1 H        3.070     2.076    -0.003
   765   1 H        2.530     2.540    -0.003
   766   1 H        2.252    18.672    -0.025
   767   1 H        1.944    17.354    -0.023
   768   1 H        1.900    24.020    -0.032
   769   1 H        1.889    23.965    -0.032
   770   1 H        1.908    23.550    -0.031
   771   1 H        1.900    23.894    -0.032
   772   1 H        1.899    23.773    -0.032
   773   1 H        1.908    23.280    -0.031
   774   1 H        2.065    15.471    -0.021
   775   1 H        1.952    18.454    -0.025
   776   1 H        1.923    18.435    -0.025
   777   1 H        1.953    16.666    -0.022
   778   1 H        1.906    20.083    -0.027
   779   1 H        1.899    23.767    -0.032
   780   1 H        1.905    23.601    -0.032
   781   1 H        1.942    20.412    -0.027
   782   1 H        1.963    17.653    -0.024
   783   1 H        2.027    13.480    -0.018
   784   1 H        2.037    10.112    -0.014
   785   1 H        1.945    18.898    -0.025
   786   1 H        1.978    15.153    -0.020
   787   1 H        1.939    17.708    -0.024
   788   1 H        1.916    23.255    -0.031

 total SASA / Å² :     4615.107

     #   Z          covCN         q      C6AA      α(0)
     1   8 O        1.647    -0.498    22.853     6.453
     2   6 C        3.666     0.050    19.981     6.410
     3   6 C        3.796     0.100    18.936     6.196
     4   8 O        1.703    -0.316    19.279     5.928
     5   6 C        3.911     0.108    18.760     6.156
     6   8 O        1.651    -0.353    19.958     6.031
     7   6 C        3.838    -0.082    22.026     6.677
     8   6 C        3.726     0.179    17.837     6.030
     9   7 N        2.738    -0.087    22.928     7.112
    10   6 C        2.724     0.319    21.578     7.605
    11   8 O        0.860    -0.544    24.774     6.673
    12   7 N        1.856    -0.387    30.975     8.249
    13   6 C        2.850     0.194    23.862     8.006
    14   7 N        2.669    -0.224    25.903     7.559
    15   6 C        2.911    -0.092    30.308     9.027
    16   6 C        2.852     0.044    27.003     8.517
    17   1 H        0.924     0.078     1.999     2.211
    18   1 H        0.925     0.064     2.152     2.294
    19   1 H        0.924     0.065     2.137     2.286
    20   1 H        0.925     0.077     2.010     2.217
    21   1 H        0.924     0.073     2.052     2.240
    22   1 H        0.925     0.063     2.161     2.299
    23   1 H        0.925     0.067     2.120     2.277
    24   1 H        0.860     0.227     0.978     1.549
    25   1 H        0.860     0.241     0.919     1.502
    26   1 H        0.926     0.092     1.860     2.133
    27   1 H        0.926     0.104     1.749     2.068
    28   1 H        0.805     0.351     0.586     1.203
    29  15 P        3.679     0.732   131.634    20.610
    30   8 O        1.613    -0.390    20.682     6.138
    31   8 O        0.808    -0.579    25.641     6.788
    32   8 O        1.658    -0.330    19.547     5.968
    33   6 C        3.860     0.059    19.549     6.288
    34   6 C        3.885     0.084    19.138     6.219
    35   8 O        1.704    -0.330    19.523     5.966
    36   6 C        4.022     0.113    18.657     6.136
    37   8 O        1.660    -0.296    18.942     5.875
    38   6 C        3.897    -0.090    22.147     6.690
    39   6 C        3.770     0.173    17.864     6.023
    40   7 N        2.850    -0.036    21.942     6.957
    41   6 C        3.042     0.086    26.053     8.372
    42   7 N        1.885    -0.299    28.589     7.926
    43   6 C        3.120    -0.019    28.302     8.713
    44   6 C        2.766     0.274    22.372     7.746
    45   8 O        0.866    -0.477    23.284     6.470
    46   7 N        2.735    -0.213    25.632     7.519
    47   6 C        2.851     0.237    23.061     7.871
    48   7 N        2.680    -0.260    26.737     7.680
    49   7 N        1.840    -0.354    30.050     8.124
    50   6 C        3.093     0.124    25.173     8.223
    51   1 H        0.924     0.089     1.892     2.151
    52   1 H        0.924     0.084     1.937     2.176
    53   1 H        0.924     0.098     1.802     2.099
    54   1 H        0.924     0.077     2.011     2.218
    55   1 H        0.924     0.076     2.017     2.221
    56   1 H        0.925     0.067     2.115     2.274
    57   1 H        0.925     0.067     2.120     2.277
    58   1 H        0.926     0.067     2.114     2.274
    59   1 H        0.860     0.233     0.950     1.527
    60   1 H        0.860     0.247     0.897     1.483
    61   1 H        0.860     0.254     0.870     1.461
    62  15 P        3.831     0.760   130.649    20.533
    63   8 O        1.613    -0.397    20.811     6.157
    64   8 O        0.808    -0.600    26.137     6.853
    65   8 O        1.659    -0.359    20.079     6.049
    66   6 C        3.915     0.062    19.485     6.274
    67   6 C        3.809     0.085    19.162     6.231
    68   8 O        1.706    -0.320    19.341     5.938
    69   6 C        4.039     0.118    18.585     6.124
    70   8 O        1.660    -0.343    19.776     6.003
    71   6 C        3.831    -0.103    22.441     6.740
    72   6 C        3.807     0.175    17.807     6.007
    73   7 N        2.753    -0.080    22.796     7.091
    74   6 C        2.748     0.331    21.382     7.572
    75   8 O        0.861    -0.496    23.701     6.527
    76   7 N        1.853    -0.374    30.602     8.199
    77   6 C        2.875     0.197    23.809     7.999
    78   7 N        2.659    -0.264    26.844     7.695
    79   6 C        2.927    -0.099    30.497     9.056
    80   6 C        2.866     0.043    27.021     8.521
    81   1 H        0.925     0.067     2.116     2.275
    82   1 H        0.924     0.072     2.062     2.246
    83   1 H        0.924     0.090     1.875     2.142
    84   1 H        0.925     0.058     2.221     2.330
    85   1 H        0.925     0.088     1.902     2.157
    86   1 H        0.925     0.076     2.026     2.226
    87   1 H        0.924     0.071     2.076     2.253
    88   1 H        0.861     0.242     0.913     1.497
    89   1 H        0.860     0.215     1.034     1.593
    90   1 H        0.926     0.057     2.230     2.335
    91   1 H        0.926     0.091     1.871     2.139
    92  15 P        3.889     0.773   130.231    20.500
    93   8 O        0.808    -0.614    26.494     6.900
    94   8 O        1.614    -0.395    20.783     6.153
    95   8 O        1.658    -0.313    19.242     5.922
    96   6 C        3.982     0.062    19.468     6.269
    97   6 C        3.959     0.096    18.930     6.182
    98   8 O        1.709    -0.321    19.364     5.941
    99   6 C        3.946     0.101    18.851     6.170
   100   8 O        1.658    -0.365    20.182     6.065
   101   6 C        3.869    -0.104    22.429     6.734
   102   6 C        3.864     0.178    17.722     5.986
   103   7 N        2.806    -0.088    22.954     7.116
   104   6 C        3.215     0.094    25.288     8.182
   105   7 N        1.876    -0.287    28.293     7.885
   106   6 C        3.240    -0.010    27.327     8.476
   107   6 C        2.785     0.279    22.285     7.732
   108   8 O        0.867    -0.515    24.122     6.585
   109   7 N        2.734    -0.208    25.518     7.503
   110   6 C        2.852     0.249    22.839     7.833
   111   7 N        2.680    -0.261    26.766     7.684
   112   7 N        1.861    -0.356    30.121     8.135
   113   6 C        3.143     0.142    24.695     8.131
   114   1 H        0.924     0.080     1.976     2.198
   115   1 H        0.924     0.095     1.835     2.118
   116   1 H        0.924     0.076     2.024     2.225
   117   1 H        0.925     0.077     2.005     2.215
   118   1 H        0.924     0.090     1.883     2.146
   119   1 H        0.925     0.082     1.958     2.188
   120   1 H        0.924     0.059     2.207     2.323
   121   1 H        0.926     0.071     2.078     2.254
   122   1 H        0.860     0.229     0.971     1.544
   123   1 H        0.860     0.227     0.976     1.548
   124   1 H        0.860     0.258     0.852     1.446
   125  15 P        3.771     0.777   130.085    20.488
   126   8 O        0.808    -0.620    26.636     6.918
   127   8 O        1.614    -0.390    20.676     6.137
   128   8 O        1.655    -0.312    19.216     5.918
   129   6 C        3.928     0.053    19.624     6.296
   130   6 C        3.865     0.097    18.941     6.189
   131   8 O        1.708    -0.298    18.954     5.878
   132   6 C        3.908     0.100    18.888     6.177
   133   8 O        1.655    -0.359    20.064     6.047
   134   6 C        3.843    -0.107    22.512     6.749
   135   6 C        3.770     0.165    17.977     6.042
   136   7 N        2.844    -0.077    22.722     7.080
   137   6 C        3.043     0.099    25.779     8.327
   138   7 N        1.873    -0.284    28.207     7.873
   139   6 C        3.174     0.012    27.355     8.542
   140   6 C        2.867     0.173    24.272     8.076
   141   7 N        2.649    -0.237    26.193     7.601
   142   7 N        1.840    -0.338    29.637     8.068
   143   6 C        2.915     0.147    24.808     8.168
   144   7 N        1.822    -0.326    29.292     8.019
   145   6 C        3.056     0.125    25.215     8.235
   146   1 H        0.924     0.091     1.871     2.139
   147   1 H        0.924     0.087     1.911     2.162
   148   1 H        0.925     0.102     1.769     2.080
   149   1 H        0.924     0.074     2.046     2.237
   150   1 H        0.925     0.094     1.838     2.120
   151   1 H        0.926     0.086     1.914     2.164
   152   1 H        0.924     0.074     2.041     2.234
   153   1 H        0.926     0.085     1.926     2.170
   154   1 H        0.860     0.225     0.987     1.556
   155   1 H        0.860     0.237     0.934     1.514
   156   1 H        0.926     0.045     2.382     2.414
   157  15 P        3.778     0.776   130.131    20.492
   158   8 O        0.808    -0.590    25.904     6.823
   159   8 O        1.614    -0.387    20.620     6.129
   160   8 O        1.660    -0.323    19.418     5.949
   161   6 C        3.958     0.062    19.468     6.269
   162   6 C        3.871     0.090    19.044     6.205
   163   8 O        1.699    -0.322    19.377     5.943
   164   6 C        4.000     0.106    18.770     6.155
   165   8 O        1.661    -0.354    19.985     6.035
   166   6 C        3.861    -0.111    22.585     6.759
   167   6 C        3.770     0.160    18.053     6.055
   168   7 N        2.836    -0.065    22.495     7.044
   169   6 C        3.233     0.092    25.159     8.141
   170   7 N        1.862    -0.275    27.990     7.842
   171   6 C        3.285     0.010    26.276     8.238
   172   6 C        2.922     0.163    24.486     8.115
   173   7 N        2.652    -0.265    26.865     7.698
   174   7 N        1.848    -0.326    29.305     8.023
   175   6 C        2.991     0.158    24.571     8.131
   176   7 N        1.827    -0.318    29.086     7.992
   177   6 C        3.212     0.142    24.328     8.028
   178   1 H        0.924     0.070     2.081     2.256
   179   1 H        0.924     0.069     2.094     2.263
   180   1 H        0.924     0.089     1.884     2.147
   181   1 H        0.924     0.069     2.098     2.265
   182   1 H        0.925     0.092     1.860     2.133
   183   1 H        0.925     0.098     1.799     2.097
   184   1 H        0.925     0.095     1.830     2.115
   185   1 H        0.926     0.085     1.931     2.173
   186   1 H        0.860     0.220     1.008     1.572
   187   1 H        0.860     0.232     0.956     1.532
   188   1 H        0.926     0.033     2.543     2.494
   189  15 P        3.903     0.795   129.493    20.441
   190   8 O        0.808    -0.619    26.614     6.915
   191   8 O        1.614    -0.367    20.247     6.073
   192   8 O        1.658    -0.315    19.273     5.926
   193   6 C        3.950     0.059    19.522     6.278
   194   6 C        3.809     0.091    19.075     6.217
   195   8 O        1.710    -0.324    19.414     5.949
   196   6 C        3.899     0.088    19.075     6.208
   197   8 O        1.653    -0.356    20.014     6.039
   198   6 C        3.855    -0.115    22.660     6.770
   199   6 C        3.724     0.177    17.868     6.036
   200   7 N        2.740    -0.093    23.062     7.132
   201   6 C        2.706     0.325    21.478     7.586
   202   8 O        0.859    -0.477    23.285     6.470
   203   7 N        2.708    -0.200    25.342     7.477
   204   6 C        2.769     0.287    22.131     7.705
   205   8 O        0.866    -0.456    22.826     6.406
   206   6 C        2.959    -0.044    29.096     8.848
   207   6 C        3.761    -0.135    23.137     6.857
   208   6 C        2.849     0.002    27.977     8.669
   209   1 H        0.925     0.081     1.971     2.195
   210   1 H        0.925     0.097     1.809     2.104
   211   1 H        0.924     0.087     1.913     2.163
   212   1 H        0.925     0.099     1.791     2.093
   213   1 H        0.925     0.089     1.888     2.148
   214   1 H        0.926     0.095     1.827     2.113
   215   1 H        0.924     0.066     2.135     2.285
   216   1 H        0.860     0.230     0.963     1.537
   217   1 H        0.924     0.078     1.998     2.210
   218   1 H        0.924     0.097     1.814     2.106
   219   1 H        0.924     0.085     1.927     2.171
   220   1 H        0.926     0.119     1.622     1.991
   221  15 P        3.789     0.753   130.890    20.551
   222   8 O        0.808    -0.544    24.809     6.677
   223   8 O        1.614    -0.361    20.131     6.056
   224   8 O        1.661    -0.327    19.485     5.959
   225   6 C        3.957     0.069    19.359     6.252
   226   6 C        3.809     0.091    19.077     6.217
   227   8 O        1.701    -0.317    19.284     5.929
   228   6 C        3.929     0.088    19.059     6.204
   229   8 O        1.660    -0.330    19.531     5.966
   230   6 C        3.808    -0.113    22.644     6.774
   231   6 C        3.770     0.172    17.881     6.026
   232   7 N        2.744    -0.061    22.417     7.032
   233   6 C        2.716     0.340    21.215     7.540
   234   8 O        0.860    -0.483    23.410     6.487
   235   7 N        2.703    -0.221    25.812     7.546
   236   6 C        2.755     0.264    22.556     7.777
   237   8 O        0.858    -0.486    23.487     6.498
   238   6 C        2.943    -0.053    29.320     8.881
   239   6 C        3.751    -0.138    23.222     6.872
   240   6 C        2.835     0.005    27.912     8.658
   241   1 H        0.924     0.057     2.239     2.340
   242   1 H        0.925     0.070     2.091     2.261
   243   1 H        0.924     0.077     2.011     2.218
   244   1 H        0.924     0.100     1.789     2.091
   245   1 H        0.925     0.115     1.652     2.010
   246   1 H        0.925     0.094     1.844     2.123
   247   1 H        0.925     0.070     2.089     2.260
   248   1 H        0.862     0.232     0.956     1.531
   249   1 H        0.925     0.083     1.945     2.181
   250   1 H        0.925     0.084     1.938     2.177
   251   1 H        0.925     0.101     1.774     2.083
   252   1 H        0.926     0.136     1.490     1.909
   253  15 P        3.682     0.756   130.807    20.545
   254   8 O        0.808    -0.571    25.453     6.763
   255   8 O        1.614    -0.389    20.659     6.135
   256   8 O        1.652    -0.362    20.126     6.056
   257   6 C        3.826     0.064    19.494     6.283
   258   6 C        3.823     0.103    18.872     6.182
   259   8 O        1.697    -0.346    19.809     6.009
   260   6 C        3.902     0.110    18.722     6.150
   261   8 O        1.663    -0.352    19.931     6.027
   262   6 C        3.824    -0.098    22.349     6.727
   263   6 C        3.727     0.173    17.919     6.044
   264   7 N        2.789    -0.121    23.633     7.220
   265   6 C        2.930     0.332    21.377     7.583
   266   7 N        2.733    -0.171    24.701     7.381
   267   6 C        3.085    -0.011    28.203     8.706
   268   6 C        2.766     0.273    22.382     7.748
   269   8 O        0.860    -0.485    23.448     6.492
   270   7 N        2.732    -0.198    25.295     7.470
   271   6 C        2.832     0.217    23.424     7.931
   272   7 N        2.669    -0.261    26.769     7.684
   273   7 N        1.826    -0.292    28.425     7.900
   274   6 C        3.034     0.129    25.143     8.225
   275   8 O        0.859    -0.556    25.069     6.713
   276   1 H        0.924     0.060     2.200     2.320
   277   1 H        0.925     0.070     2.080     2.256
   278   1 H        0.924     0.057     2.238     2.339
   279   1 H        0.925     0.074     2.037     2.232
   280   1 H        0.924     0.113     1.669     2.020
   281   1 H        0.924     0.093     1.849     2.126
   282   1 H        0.925     0.065     2.144     2.290
   283   1 H        0.859     0.237     0.935     1.515
   284   1 H        0.859     0.260     0.844     1.439
   285   1 H        0.859     0.262     0.838     1.434
   286   1 H        0.859     0.264     0.832     1.429
   287  15 P        3.672     0.738   131.421    20.593
   288   8 O        0.808    -0.555    25.064     6.711
   289   8 O        1.614    -0.381    20.500     6.111
   290   8 O        1.656    -0.333    19.603     5.977
   291   6 C        3.844     0.047    19.764     6.324
   292   6 C        3.798     0.098    18.964     6.201
   293   8 O        1.709    -0.300    18.993     5.884
   294   6 C        3.857     0.096    18.957     6.192
   295   8 O        1.653    -0.360    20.095     6.051
   296   6 C        3.818    -0.101    22.415     6.738
   297   6 C        3.764     0.163    18.014     6.050
   298   7 N        2.832    -0.062    22.442     7.036
   299   6 C        3.074     0.097    25.783     8.325
   300   7 N        1.864    -0.299    28.604     7.928
   301   6 C        3.163    -0.017    28.103     8.665
   302   6 C        2.779     0.274    22.366     7.746
   303   8 O        0.862    -0.501    23.804     6.541
   304   7 N        2.719    -0.185    24.996     7.425
   305   6 C        2.866     0.239    23.011     7.863
   306   7 N        2.660    -0.273    27.054     7.725
   307   7 N        1.846    -0.347    29.875     8.101
   308   6 C        3.078     0.126    25.155     8.223
   309   1 H        0.924     0.096     1.825     2.113
   310   1 H        0.924     0.080     1.981     2.201
   311   1 H        0.924     0.090     1.882     2.146
   312   1 H        0.924     0.074     2.047     2.237
   313   1 H        0.924     0.089     1.889     2.150
   314   1 H        0.925     0.087     1.912     2.162
   315   1 H        0.925     0.078     2.004     2.214
   316   1 H        0.926     0.074     2.042     2.235
   317   1 H        0.860     0.232     0.956     1.531
   318   1 H        0.860     0.233     0.953     1.529
   319   1 H        0.860     0.244     0.908     1.493
   320  15 P        3.682     0.769   130.352    20.509
   321   8 O        1.614    -0.365    20.213     6.068
   322   8 O        0.808    -0.573    25.497     6.769
   323   8 O        1.656    -0.360    20.087     6.050
   324   6 C        3.903     0.053    19.630     6.298
   325   6 C        3.812     0.090    19.079     6.217
   326   8 O        1.703    -0.311    19.181     5.913
   327   6 C        3.952     0.106    18.772     6.157
   328   8 O        1.659    -0.334    19.610     5.978
   329   6 C        3.826    -0.089    22.172     6.700
   330   6 C        3.743     0.170    17.937     6.042
   331   7 N        2.741    -0.103    23.264     7.164
   332   6 C        2.738     0.347    21.107     7.522
   333   8 O        0.872    -0.519    24.194     6.595
   334   7 N        1.859    -0.372    30.567     8.195
   335   6 C        2.871     0.191    23.931     8.019
   336   7 N        2.650    -0.242    26.315     7.619
   337   6 C        2.912    -0.094    30.368     9.036
   338   6 C        2.870     0.046    26.955     8.511
   339   1 H        0.925     0.083     1.952     2.185
   340   1 H        0.924     0.075     2.032     2.229
   341   1 H        0.924     0.096     1.820     2.110
   342   1 H        0.925     0.076     2.025     2.226
   343   1 H        0.925     0.084     1.941     2.178
   344   1 H        0.925     0.077     2.006     2.215
   345   1 H        0.924     0.062     2.175     2.306
   346   1 H        0.860     0.239     0.926     1.508
   347   1 H        0.860     0.239     0.928     1.509
   348   1 H        0.926     0.082     1.957     2.188
   349   1 H        0.926     0.091     1.864     2.135
   350  15 P        3.790     0.746   131.127    20.570
   351   8 O        0.808    -0.607    26.311     6.876
   352   8 O        1.614    -0.377    20.425     6.100
   353   8 O        1.653    -0.352    19.947     6.029
   354   6 C        3.881     0.061    19.503     6.279
   355   6 C        3.780     0.089    19.125     6.230
   356   8 O        1.703    -0.339    19.689     5.991
   357   6 C        3.730     0.104    18.964     6.217
   358   8 O        1.657    -0.461    22.077     6.343
   359   6 C        3.832    -0.097    22.324     6.722
   360   6 C        3.686     0.161    18.182     6.104
   361   7 N        2.850    -0.054    22.288     7.012
   362   6 C        3.140     0.084    25.910     8.330
   363   7 N        1.861    -0.299    28.590     7.925
   364   6 C        3.260     0.002    26.806     8.366
   365   6 C        2.787     0.263    22.572     7.782
   366   8 O        0.859    -0.497    23.723     6.530
   367   7 N        2.768    -0.188    25.064     7.436
   368   6 C        2.869     0.246    22.890     7.843
   369   7 N        2.707    -0.267    26.915     7.705
   370   7 N        1.835    -0.346    29.834     8.094
   371   6 C        3.086     0.131    25.048     8.204
   372   1 H        0.924     0.067     2.123     2.279
   373   1 H        0.925     0.075     2.030     2.228
   374   1 H        0.924     0.072     2.063     2.246
   375   1 H        0.925     0.084     1.943     2.180
   376   1 H        0.805     0.338     0.616     1.233
   377   1 H        0.925     0.068     2.113     2.273
   378   1 H        0.924     0.081     1.965     2.192
   379   1 H        0.925     0.069     2.095     2.264
   380   1 H        0.926     0.063     2.163     2.300
   381   1 H        0.860     0.233     0.952     1.529
   382   1 H        0.860     0.236     0.940     1.519
   383   1 H        0.860     0.255     0.864     1.456
   384   8 O        1.653    -0.467    22.203     6.361
   385   6 C        3.673     0.055    19.878     6.390
   386   6 C        3.823     0.092    19.050     6.211
   387   8 O        1.707    -0.333    19.572     5.973
   388   6 C        3.896     0.117    18.627     6.135
   389   8 O        1.658    -0.360    20.092     6.051
   390   6 C        3.835    -0.089    22.177     6.700
   391   6 C        3.754     0.181    17.770     6.011
   392   7 N        2.744    -0.085    22.888     7.105
   393   6 C        2.762     0.319    21.586     7.609
   394   8 O        0.858    -0.574    25.498     6.770
   395   7 N        1.845    -0.367    30.415     8.173
   396   6 C        2.890     0.202    23.721     7.985
   397   7 N        2.672    -0.245    26.379     7.628
   398   6 C        2.935    -0.097    30.442     9.049
   399   6 C        2.861     0.046    26.967     8.512
   400   1 H        0.925     0.079     1.990     2.206
   401   1 H        0.925     0.076     2.024     2.225
   402   1 H        0.924     0.060     2.195     2.317
   403   1 H        0.925     0.064     2.148     2.292
   404   1 H        0.924     0.062     2.177     2.307
   405   1 H        0.925     0.069     2.097     2.265
   406   1 H        0.925     0.065     2.143     2.289
   407   1 H        0.860     0.245     0.901     1.487
   408   1 H        0.860     0.243     0.912     1.496
   409   1 H        0.926     0.090     1.875     2.141
   410   1 H        0.926     0.089     1.885     2.147
   411   1 H        0.805     0.320     0.662     1.278
   412  15 P        3.874     0.750   131.016    20.561
   413   8 O        1.614    -0.367    20.250     6.074
   414   8 O        0.808    -0.594    25.996     6.835
   415   8 O        1.662    -0.325    19.443     5.953
   416   6 C        4.034     0.056    19.560     6.283
   417   6 C        3.770     0.083    19.235     6.250
   418   8 O        1.701    -0.326    19.456     5.955
   419   6 C        3.964     0.113    18.670     6.139
   420   8 O        1.659    -0.332    19.575     5.973
   421   6 C        3.829    -0.088    22.152     6.697
   422   6 C        3.717     0.173    17.935     6.050
   423   7 N        2.822    -0.057    22.331     7.019
   424   6 C        3.241     0.088    25.176     8.135
   425   7 N        1.853    -0.285    28.249     7.878
   426   6 C        3.260    -0.019    27.290     8.441
   427   6 C        2.796     0.275    22.361     7.746
   428   8 O        0.875    -0.515    24.104     6.583
   429   7 N        2.727    -0.185    25.001     7.426
   430   6 C        2.823     0.240    22.998     7.858
   431   7 N        2.663    -0.270    26.996     7.717
   432   7 N        1.846    -0.373    30.591     8.197
   433   6 C        3.119     0.132    24.968     8.184
   434   1 H        0.924     0.090     1.883     2.146
   435   1 H        0.925     0.091     1.874     2.141
   436   1 H        0.924     0.099     1.793     2.094
   437   1 H        0.924     0.074     2.046     2.237
   438   1 H        0.925     0.077     2.014     2.219
   439   1 H        0.925     0.067     2.124     2.279
   440   1 H        0.925     0.070     2.083     2.257
   441   1 H        0.926     0.060     2.204     2.321
   442   1 H        0.860     0.236     0.939     1.518
   443   1 H        0.860     0.242     0.915     1.498
   444   1 H        0.860     0.249     0.889     1.477
   445  15 P        3.777     0.748   131.078    20.566
   446   8 O        1.614    -0.400    20.870     6.166
   447   8 O        0.808    -0.575    25.533     6.773
   448   8 O        1.660    -0.328    19.497     5.961
   449   6 C        3.926     0.058    19.550     6.284
[...]
                           535 H    0.952
   519   7 N    3.605 --   520 C    1.236   528 C    1.144   518 C    0.962
                           521 N    0.112
   520   6 C    3.954 --   521 N    1.594   519 N    1.236   536 H    0.953
   521   7 N    2.981 --   520 C    1.594   522 C    1.163   519 N    0.112
   522   6 C    3.961 --   528 C    1.366   521 N    1.163   523 C    1.158
   523   6 C    3.969 --   524 N    1.372   525 N    1.305   522 C    1.158
   524   7 N    3.462 --   523 C    1.372   538 H    0.923   537 H    0.897
   525   7 N    3.094 --   526 C    1.388   523 C    1.305
   526   6 C    3.972 --   527 N    1.489   525 N    1.388   539 H    0.955
   527   7 N    3.002 --   526 C    1.489   528 C    1.228
   528   6 C    3.956 --   522 C    1.366   527 N    1.228   519 N    1.144
   529   1 H    0.991 --   512 C    0.961
   530   1 H    0.992 --   512 C    0.964
   531   1 H    0.983 --   513 C    0.951
   532   1 H    0.992 --   515 C    0.962
   533   1 H    0.992 --   517 C    0.963
   534   1 H    0.995 --   517 C    0.967
   535   1 H    0.995 --   518 C    0.952
   536   1 H    0.995 --   520 C    0.953
   537   1 H    0.943 --   524 N    0.897
   538   1 H    0.945 --   524 N    0.923
   539   1 H    0.999 --   526 C    0.955
   540  15 P    5.486 --   542 O    1.771   541 O    1.359   543 O    1.170
                           516 O    1.137
   541   8 O    2.275 --   540 P    1.359   771 H    0.751
   542   8 O    1.980 --   540 P    1.771
   543   8 O    2.272 --   540 P    1.170   544 C    0.920
   544   6 C    3.918 --   545 C    0.989   562 H    0.969   561 H    0.966
                           543 O    0.920
   545   6 C    3.944 --   544 C    0.989   546 O    0.973   547 C    0.971
                           563 H    0.946
   546   8 O    2.075 --   545 C    0.973   550 C    0.967
   547   6 C    3.923 --   549 C    0.995   545 C    0.971   564 H    0.963
                           548 O    0.923
   548   8 O    2.260 --   572 P    1.122   547 C    0.923
   549   6 C    3.985 --   547 C    0.995   550 C    0.971   565 H    0.968
                           566 H    0.962
   550   6 C    3.930 --   549 C    0.971   546 O    0.967   551 N    0.966
                           567 H    0.956
   551   7 N    3.614 --   552 C    1.249   560 C    1.140   550 C    0.966
                           553 N    0.112
   552   6 C    3.953 --   553 N    1.556   551 N    1.249   568 H    0.955
   553   7 N    2.986 --   552 C    1.556   554 C    1.207   551 N    0.112
   554   6 C    3.973 --   560 C    1.324   553 N    1.207   555 C    1.182
   555   6 C    3.973 --   557 N    1.349   556 N    1.290   554 C    1.182
   556   7 N    3.395 --   555 C    1.290   570 H    0.930   569 H    0.919
   557   7 N    3.067 --   558 C    1.379   555 C    1.349
   558   6 C    3.969 --   559 N    1.472   557 N    1.379   571 H    0.953
   559   7 N    3.019 --   558 C    1.472   560 C    1.273
   560   6 C    3.958 --   554 C    1.324   559 N    1.273   551 N    1.140
   561   1 H    0.991 --   544 C    0.966
   562   1 H    0.992 --   544 C    0.969
   563   1 H    0.990 --   545 C    0.946
   564   1 H    0.992 --   547 C    0.963
   565   1 H    0.992 --   549 C    0.968
   566   1 H    0.993 --   549 C    0.962
   567   1 H    0.993 --   550 C    0.956
   568   1 H    0.994 --   552 C    0.955
   569   1 H    0.947 --   556 N    0.919
   570   1 H    0.948 --   556 N    0.930
   571   1 H    0.998 --   558 C    0.953
   572  15 P    5.464 --   574 O    1.770   573 O    1.364   575 O    1.144
                           548 O    1.122
   573   8 O    2.281 --   572 P    1.364   772 H    0.754
   574   8 O    1.981 --   572 P    1.770
   575   8 O    2.290 --   572 P    1.144   576 C    0.953
   576   6 C    3.929 --   577 C    0.980   593 H    0.965   592 H    0.963
                           575 O    0.953
   577   6 C    3.946 --   576 C    0.980   579 C    0.978   578 O    0.973
                           594 H    0.945
   578   8 O    2.076 --   577 C    0.973   582 C    0.971
   579   6 C    3.935 --   581 C    0.991   577 C    0.978   595 H    0.961
                           580 O    0.936
   580   8 O    2.220 --   604 P    1.066   579 C    0.936
   581   6 C    3.984 --   579 C    0.991   582 C    0.979   596 H    0.967
                           597 H    0.959
   582   6 C    3.926 --   581 C    0.979   578 O    0.971   598 H    0.955
                           583 N    0.946
   583   7 N    3.550 --   591 C    1.143   584 C    1.118   582 C    0.946
                           585 O    0.136
   584   6 C    3.959 --   585 O    1.619   586 N    1.146   583 N    1.118
   585   8 O    1.971 --   584 C    1.619   583 N    0.136   586 N    0.134
   586   7 N    3.501 --   584 C    1.146   587 C    1.124   599 H    0.853
                           588 O    0.137   585 O    0.134
   587   6 C    3.936 --   588 O    1.636   586 N    1.124   589 C    1.075
   588   8 O    1.969 --   587 C    1.636   586 N    0.137
   589   6 C    3.976 --   591 C    1.671   587 C    1.075   590 C    1.016
   590   6 C    3.979 --   589 C    1.016   602 H    0.980   601 H    0.975
                           600 H    0.960
   591   6 C    3.951 --   589 C    1.671   583 N    1.143   603 H    0.949
   592   1 H    0.994 --   576 C    0.963
   593   1 H    0.992 --   576 C    0.965
   594   1 H    0.994 --   577 C    0.945
   595   1 H    0.994 --   579 C    0.961
   596   1 H    0.994 --   581 C    0.967
   597   1 H    0.991 --   581 C    0.959
   598   1 H    0.993 --   582 C    0.955
   599   1 H    0.940 --   586 N    0.853
   600   1 H    0.989 --   590 C    0.960
   601   1 H    0.993 --   590 C    0.975
   602   1 H    0.994 --   590 C    0.980
   603   1 H    0.990 --   591 C    0.949
   604  15 P    5.436 --   606 O    1.768   605 O    1.404   607 O    1.137
                           580 O    1.066
   605   8 O    2.310 --   604 P    1.404   773 H    0.745
   606   8 O    1.981 --   604 P    1.768
   607   8 O    2.273 --   604 P    1.137   608 C    0.936
   608   6 C    3.926 --   609 C    0.995   625 H    0.962   624 H    0.961
                           607 O    0.936
   609   6 C    3.945 --   608 C    0.995   611 C    0.971   610 O    0.958
                           626 H    0.943
   610   8 O    2.077 --   614 C    0.975   609 C    0.958
   611   6 C    3.933 --   613 C    0.986   609 C    0.971   627 H    0.958
                           612 O    0.940
   612   8 O    2.260 --   636 P    1.091   611 C    0.940
   613   6 C    3.983 --   614 C    0.990   611 C    0.986   629 H    0.962
                           628 H    0.959
   614   6 C    3.927 --   613 C    0.990   610 O    0.975   630 H    0.947
                           615 N    0.937
   615   7 N    3.569 --   623 C    1.203   616 C    1.076   614 C    0.937
                           617 O    0.130
   616   6 C    3.957 --   617 O    1.636   618 N    1.157   615 N    1.076
   617   8 O    1.986 --   616 C    1.636   618 N    0.134   615 N    0.130
   618   7 N    3.518 --   616 C    1.157   619 C    1.131   631 H    0.853
                           620 O    0.139   617 O    0.134
   619   6 C    3.945 --   620 O    1.623   618 N    1.131   621 C    1.104
   620   8 O    1.963 --   619 C    1.623   618 N    0.139
   621   6 C    3.982 --   623 C    1.610   619 C    1.104   622 C    1.028
   622   6 C    3.986 --   621 C    1.028   633 H    0.981   634 H    0.966
                           632 H    0.961
   623   6 C    3.949 --   621 C    1.610   615 N    1.203   635 H    0.941
   624   1 H    0.993 --   608 C    0.961
   625   1 H    0.991 --   608 C    0.962
   626   1 H    0.988 --   609 C    0.943
   627   1 H    0.993 --   611 C    0.958
   628   1 H    0.992 --   613 C    0.959
   629   1 H    0.991 --   613 C    0.962
   630   1 H    0.994 --   614 C    0.947
   631   1 H    0.942 --   618 N    0.853
   632   1 H    0.993 --   622 C    0.961
   633   1 H    0.994 --   622 C    0.981
   634   1 H    0.992 --   622 C    0.966
   635   1 H    0.986 --   623 C    0.941
   636  15 P    5.539 --   638 O    1.810   637 O    1.415   639 O    1.122
                           612 O    1.091
   637   8 O    2.290 --   636 P    1.415   774 H    0.697
   638   8 O    2.033 --   636 P    1.810
   639   8 O    2.282 --   636 P    1.122   640 C    0.951
   640   6 C    3.921 --   641 C    0.982   660 H    0.963   659 H    0.957
                           639 O    0.951
   641   6 C    3.942 --   643 C    0.984   640 C    0.982   661 H    0.952
                           642 O    0.948
   642   8 O    2.068 --   646 C    0.984   641 C    0.948
   643   6 C    3.922 --   645 C    0.986   641 C    0.984   662 H    0.953
                           644 O    0.908
   644   8 O    2.260 --   670 P    1.133   643 C    0.908
   645   6 C    3.975 --   643 C    0.986   646 C    0.977   664 H    0.972
                           663 H    0.958
   646   6 C    3.926 --   642 O    0.984   645 C    0.977   665 H    0.955
                           647 N    0.936
   647   7 N    3.565 --   657 C    1.179   648 C    1.127   646 C    0.936
                           658 O    0.116
   648   6 C    3.953 --   658 O    1.503   649 N    1.206   647 N    1.127
   649   7 N    3.506 --   648 C    1.206   650 C    1.098   666 H    0.912
                           658 O    0.152
   650   6 C    3.928 --   657 C    1.347   651 C    1.166   649 N    1.098
   651   6 C    3.965 --   652 O    1.559   650 C    1.166   653 N    1.127
   652   8 O    1.908 --   651 C    1.559   653 N    0.135
   653   7 N    3.512 --   654 C    1.170   651 C    1.127   667 H    0.894
                           652 O    0.135
   654   6 C    3.963 --   656 N    1.355   655 N    1.330   653 N    1.170
   655   7 N    3.383 --   654 C    1.330   669 H    0.909   668 H    0.908
                           656 N    0.104
   656   7 N    2.959 --   654 C    1.355   657 C    1.237   655 N    0.104
   657   6 C    3.961 --   650 C    1.347   656 N    1.237   647 N    1.179
   658   8 O    1.909 --   648 C    1.503   649 N    0.152   647 N    0.116
   659   1 H    0.992 --   640 C    0.957
   660   1 H    0.989 --   640 C    0.963
   661   1 H    0.994 --   641 C    0.952
   662   1 H    0.994 --   643 C    0.953
   663   1 H    0.985 --   645 C    0.958
   664   1 H    0.992 --   645 C    0.972
   665   1 H    0.996 --   646 C    0.955
   666   1 H    0.954 --   649 N    0.912
   667   1 H    0.933 --   653 N    0.894
   668   1 H    0.932 --   655 N    0.908
   669   1 H    0.934 --   655 N    0.909
   670  15 P    5.466 --   672 O    1.785   671 O    1.385   644 O    1.133
                           673 O    1.098
   671   8 O    2.296 --   670 P    1.385   775 H    0.755
   672   8 O    1.991 --   670 P    1.785
   673   8 O    2.236 --   670 P    1.098   674 C    0.950
   674   6 C    3.933 --   675 C    0.984   693 H    0.967   692 H    0.965
                           673 O    0.950
   675   6 C    3.944 --   674 C    0.984   677 C    0.965   676 O    0.962
                           694 H    0.951
   676   8 O    2.076 --   680 C    0.981   675 C    0.962
   677   6 C    3.934 --   679 C    1.001   675 C    0.965   695 H    0.955
                           678 O    0.943
   678   8 O    2.277 --   703 P    1.121   677 C    0.943
   679   6 C    3.988 --   677 C    1.001   680 C    0.987   696 H    0.960
                           697 H    0.958
   680   6 C    3.929 --   679 C    0.987   676 O    0.981   698 H    0.950
                           681 N    0.938
   681   7 N    3.594 --   691 C    1.193   682 C    1.180   680 C    0.938
                           683 N    0.110
   682   6 C    3.949 --   683 N    1.637   681 N    1.180   699 H    0.951
   683   7 N    3.035 --   682 C    1.637   684 C    1.189   681 N    0.110
   684   6 C    3.960 --   691 C    1.349   683 N    1.189   685 C    1.127
   685   6 C    3.948 --   686 O    1.517   687 N    1.185   684 C    1.127
   686   8 O    1.928 --   685 C    1.517   687 N    0.129
   687   7 N    3.536 --   685 C    1.185   688 C    1.150   700 H    0.871
                           686 O    0.129
   688   6 C    3.963 --   690 N    1.411   689 N    1.304   687 N    1.150
   689   7 N    3.376 --   688 C    1.304   702 H    0.917   701 H    0.897
                           690 N    0.116
   690   7 N    2.971 --   688 C    1.411   691 C    1.205   689 N    0.116
   691   6 C    3.960 --   684 C    1.349   690 N    1.205   681 N    1.193
   692   1 H    0.994 --   674 C    0.965
   693   1 H    0.997 --   674 C    0.967
   694   1 H    0.987 --   675 C    0.951
   695   1 H    0.995 --   677 C    0.955
   696   1 H    0.994 --   679 C    0.960
   697   1 H    0.994 --   679 C    0.958
   698   1 H    0.990 --   680 C    0.950
   699   1 H    0.996 --   682 C    0.951
   700   1 H    0.946 --   687 N    0.871
   701   1 H    0.942 --   689 N    0.897
   702   1 H    0.934 --   689 N    0.917
   703  15 P    5.434 --   705 O    1.809   704 O    1.355   678 O    1.121
                           706 O    1.087
   704   8 O    2.285 --   703 P    1.355   776 H    0.764
   705   8 O    2.010 --   703 P    1.809
   706   8 O    2.228 --   703 P    1.087   707 C    0.937
   707   6 C    3.924 --   708 C    0.979   723 H    0.966   722 H    0.962
                           706 O    0.937
   708   6 C    3.947 --   709 O    0.980   707 C    0.979   710 C    0.965
                           724 H    0.946
   709   8 O    2.081 --   708 C    0.980   713 C    0.970
   710   6 C    3.931 --   712 C    0.984   708 C    0.965   725 H    0.955
                           711 O    0.953
   711   8 O    2.283 --   733 P    1.112   710 C    0.953
   712   6 C    3.988 --   713 C    0.986   710 C    0.984   726 H    0.969
                           727 H    0.967
   713   6 C    3.925 --   712 C    0.986   709 O    0.970   728 H    0.956
                           714 N    0.935
   714   7 N    3.576 --   721 C    1.205   715 C    1.092   713 C    0.935
                           716 O    0.117
   715   6 C    3.955 --   716 O    1.548   717 N    1.226   714 N    1.092
   716   8 O    1.925 --   715 C    1.548   714 N    0.117   717 N    0.114
   717   7 N    3.057 --   718 C    1.383   715 C    1.226   716 O    0.114
                           719 N    0.113
   718   6 C    3.969 --   717 N    1.383   719 N    1.327   720 C    1.163
   719   7 N    3.412 --   718 C    1.327   730 H    0.934   729 H    0.858
                           717 N    0.113
   720   6 C    3.982 --   721 C    1.660   718 C    1.163   731 H    0.958
   721   6 C    3.965 --   720 C    1.660   714 N    1.205   732 H    0.946
   722   1 H    0.992 --   707 C    0.962
   723   1 H    0.995 --   707 C    0.966
   724   1 H    0.987 --   708 C    0.946
   725   1 H    0.996 --   710 C    0.955
   726   1 H    0.994 --   712 C    0.969
   727   1 H    0.995 --   712 C    0.967
   728   1 H    0.992 --   713 C    0.956
   729   1 H    0.939 --   719 N    0.858
   730   1 H    0.951 --   719 N    0.934
   731   1 H    0.993 --   720 C    0.958
   732   1 H    0.992 --   721 C    0.946
   733  15 P    5.467 --   735 O    1.766   734 O    1.377   736 O    1.143
                           711 O    1.112
   734   8 O    2.292 --   733 P    1.377   777 H    0.758
   735   8 O    1.969 --   733 P    1.766
   736   8 O    2.267 --   733 P    1.143   737 C    0.927
   737   6 C    3.916 --   738 C    0.977   756 H    0.963   755 H    0.959
                           736 O    0.927
   738   6 C    3.942 --   740 C    0.978   737 C    0.977   757 H    0.954
                           739 O    0.950
   739   8 O    2.063 --   743 C    0.972   738 C    0.950
   740   6 C    3.959 --   741 O    0.994   742 C    0.983   738 C    0.978
                           758 H    0.959
   741   8 O    1.928 --   740 C    0.994   759 H    0.861
   742   6 C    3.991 --   743 C    0.993   740 C    0.983   761 H    0.974
                           760 H    0.967
   743   6 C    3.938 --   742 C    0.993   739 O    0.972   744 N    0.970
                           762 H    0.945
   744   7 N    3.586 --   745 C    1.201   754 C    1.136   743 C    0.970
                           746 N    0.117
   745   6 C    3.953 --   746 N    1.630   744 N    1.201   763 H    0.954
   746   7 N    3.001 --   745 C    1.630   747 C    1.158   744 N    0.117
   747   6 C    3.950 --   754 C    1.321   746 N    1.158   748 C    1.146
   748   6 C    3.948 --   749 O    1.538   747 C    1.146   750 N    1.145
   749   8 O    1.902 --   748 C    1.538   750 N    0.116
   750   7 N    3.551 --   751 C    1.224   748 C    1.145   764 H    0.867
                           749 O    0.116
   751   6 C    3.966 --   752 N    1.343   753 N    1.293   750 N    1.224
   752   7 N    3.412 --   751 C    1.343   766 H    0.910   765 H    0.905
   753   7 N    2.960 --   754 C    1.302   751 C    1.293
   754   6 C    3.958 --   747 C    1.321   753 N    1.302   744 N    1.136
   755   1 H    0.993 --   737 C    0.959
   756   1 H    0.994 --   737 C    0.963
   757   1 H    0.990 --   738 C    0.954
   758   1 H    0.995 --   740 C    0.959
   759   1 H    0.875 --   741 O    0.861
   760   1 H    0.997 --   742 C    0.967
   761   1 H    0.995 --   742 C    0.974
   762   1 H    0.996 --   743 C    0.945
   763   1 H    0.997 --   745 C    0.954
   764   1 H    0.942 --   750 N    0.867
   765   1 H    0.945 --   752 N    0.905
   766   1 H    0.930 --   752 N    0.910
   767   1 H    0.793 --   413 O    0.752
   768   1 H    0.792 --   446 O    0.759
   769   1 H    0.792 --   476 O    0.757
   770   1 H    0.776 --   509 O    0.738
   771   1 H    0.786 --   541 O    0.751
   772   1 H    0.789 --   573 O    0.754
   773   1 H    0.781 --   605 O    0.745
   774   1 H    0.766 --   637 O    0.697
   775   1 H    0.793 --   671 O    0.755
   776   1 H    0.801 --   704 O    0.764
   777   1 H    0.802 --   734 O    0.758
   778   1 H    0.798 --    30 O    0.760
   779   1 H    0.785 --    63 O    0.751
   780   1 H    0.782 --    94 O    0.748
   781   1 H    0.789 --   127 O    0.753
   782   1 H    0.798 --   159 O    0.758
   783   1 H    0.802 --   191 O    0.754
   784   1 H    0.804 --   223 O    0.763
   785   1 H    0.791 --   255 O    0.754
   786   1 H    0.798 --   289 O    0.754
   787   1 H    0.790 --   321 O    0.749
   788   1 H    0.779 --   352 O    0.742
 ---------------------------------------------------------------------------

Topologies differ in total number of bonds
Writing topology from bond orders to xtbtopo.mol

molecular dipole:
                 x           y           z       tot (Debye)
 q only:       10.554       1.049      17.059
   full:       13.173      -0.714      17.338      55.376
molecular quadrupole (traceless):
                xx          xy          yy          xz          yz          zz
 q only:       56.357     589.103   -1079.970    1000.429     579.014    1023.613
  q+dip:      221.932     671.925   -1255.848    1153.866     462.252    1033.916
   full:      204.502     674.227   -1274.801    1159.971     475.642    1070.299


           -------------------------------------------------
          | TOTAL ENERGY            -1569.779044948617 Eh   |
          | GRADIENT NORM               0.999365251593 Eh/α |
          | HOMO-LUMO GAP               2.096973304427 eV   |
           -------------------------------------------------

------------------------------------------------------------------------
 * finished run on 2023/03/09 at 13:52:31.428     
------------------------------------------------------------------------
 total:
 * wall-time:     0 d,  0 h,  0 min, 12.159 sec
 *  cpu-time:     0 d,  0 h,  1 min, 49.383 sec
 * ratio c/w:     8.996 speedup
 SCF:
 * wall-time:     0 d,  0 h,  0 min, 11.032 sec
 *  cpu-time:     0 d,  0 h,  1 min, 42.282 sec
 * ratio c/w:     9.272 speedup

