      -----------------------------------------------------------      
     |                   =====================                   |     
     |                           x T B                           |     
     |                   =====================                   |     
     |                         S. Grimme                         |     
     |          Mulliken Center for Theoretical Chemistry        |     
     |                    University of Bonn                     |     
      -----------------------------------------------------------      

   * xtb version 6.5.1 (579679a) compiled by 'ehlert@majestix' on 2022-07-11

   xtb is free software: you can redistribute it and/or modify it under
   the terms of the GNU Lesser General Public License as published by
   the Free Software Foundation, either version 3 of the License, or
   (at your option) any later version.
   
   xtb is distributed in the hope that it will be useful,
   but WITHOUT ANY WARRANTY; without even the implied warranty of
   MERCHANTABILITY or FITNESS FOR A PARTICULAR PURPOSE.  See the
   GNU Lesser General Public License for more details.
   
   Cite this work as:
   * C. Bannwarth, E. Caldeweyher, S. Ehlert, A. Hansen, P. Pracht,
     J. Seibert, S. Spicher, S. Grimme, WIREs Comput. Mol. Sci., 2020, 11,
     e01493. DOI: 10.1002/wcms.1493
   
   for GFN2-xTB:
   * C. Bannwarth, S. Ehlert and S. Grimme., J. Chem. Theory Comput., 2019,
     15, 1652-1671. DOI: 10.1021/acs.jctc.8b01176
   for GFN1-xTB:
   * S. Grimme, C. Bannwarth, P. Shushkov, J. Chem. Theory Comput., 2017,
     13, 1989-2009. DOI: 10.1021/acs.jctc.7b00118
   for GFN0-xTB:
   * P. Pracht, E. Caldeweyher, S. Ehlert, S. Grimme, ChemRxiv, 2019, preprint.
     DOI: 10.26434/chemrxiv.8326202.v1
   for GFN-FF:
   * S. Spicher and S. Grimme, Angew. Chem. Int. Ed., 2020, 59, 15665-15673.
     DOI: 10.1002/anie.202004239
   
   for ALPB and GBSA implicit solvation:
   * S. Ehlert, M. Stahn, S. Spicher, S. Grimme, J. Chem. Theory Comput.,
     2021, 17, 4250-4261. DOI: 10.1021/acs.jctc.1c00471
   
   for DFT-D4:
   * E. Caldeweyher, C. Bannwarth and S. Grimme, J. Chem. Phys., 2017,
     147, 034112. DOI: 10.1063/1.4993215
   * E. Caldeweyher, S. Ehlert, A. Hansen, H. Neugebauer, S. Spicher,
     C. Bannwarth and S. Grimme, J. Chem. Phys., 2019, 150, 154122.
     DOI: 10.1063/1.5090222
   * E. Caldeweyher, J.-M. Mewes, S. Ehlert and S. Grimme, Phys. Chem. Chem. Phys.
     2020, 22, 8499-8512. DOI: 10.1039/D0CP00502A
   
   for sTDA-xTB:
   * S. Grimme and C. Bannwarth, J. Chem. Phys., 2016, 145, 054103.
     DOI: 10.1063/1.4959605
   
   in the mass-spec context:
   * V. Asgeirsson, C. Bauer and S. Grimme, Chem. Sci., 2017, 8, 4879.
     DOI: 10.1039/c7sc00601b
   * J. Koopman and S. Grimme, ACS Omega 2019, 4, 12, 15120-15133.
     DOI: 10.1021/acsomega.9b02011
   
   for metadynamics refer to:
   * S. Grimme, J. Chem. Theory Comput., 2019, 155, 2847-2862
     DOI: 10.1021/acs.jctc.9b00143
   
   for SPH calculations refer to:
   * S. Spicher and S. Grimme, J. Chem. Theory Comput., 2021, 17, 1701-1714
     DOI: 10.1021/acs.jctc.0c01306
   
   with help from (in alphabetical order)
   P. Atkinson, C. Bannwarth, F. Bohle, G. Brandenburg, E. Caldeweyher
   M. Checinski, S. Dohm, S. Ehlert, S. Ehrlich, I. Gerasimov, C. Hölzer
   A. Katbashev, J. Koopman, C. Lavigne, S. Lehtola, F. März, M. Müller,
   F. Musil, H. Neugebauer, J. Pisarek, C. Plett, P. Pracht, F. Pultar,
   J. Seibert, P. Shushkov, S. Spicher, M. Stahn, M. Steiner, T. Strunk,
   J. Stückrath, T. Rose, and J. Unsleber
   
 * started run on 2023/03/09 at 13:52:06.687     

           -------------------------------------------------
          |                Calculation Setup                |
           -------------------------------------------------

          program call               : /N/u/schandy/BigRed3/bin/xtb-6.5.1/bin/xtb 1sy8.xyz --gbsa water
          hostname                   : nid00005
          coordinate file            : 1sy8.xyz
          omp threads                :                    10

   ID    Z sym.   atoms
    1    8 O      1, 4, 6, 11, 14, 31-33, 36, 38, 46, 64-66, 69, 71, 96-98,
                  101, 103, 108, 111, 128-130, 133, 135, 140, 158-160, 163,
                  165, 189, 192, 194, 199, 202, 219-221, 224, 226, 234,
                  252-254, 257, 259, 284-286, 289, 291, 296, 299, 316-318,
                  321, 323, 328, 346-348, 351, 353
    2    6 C      2, 3, 5, 7, 8, 10, 13, 15-17, 34, 35, 37, 39, 40, 42, 44,
                  45, 48, 51, 67, 68, 70, 72, 73, 75, 77, 78, 81, 83, 99,
                  100, 102, 104, 105, 107, 110, 112-114, 131, 132, 134, 136,
                  137, 139, 142, 144, 145, 161, 162, 164, 166, 167, 169, 171,
                  172, 175, 177, 190, 191, 193, 195, 196, 198, 201, 203-205,
                  222, 223, 225, 227, 228, 230, 232, 233, 236, 239, 255, 256,
                  258, 260, 261, 263, 265, 266, 269, 271, 287, 288, 290, 292,
                  293, 295, 298, 300-302, 319, 320, 322, 324, 325, 327, 330,
                  332, 333, 349, 350, 352, 354, 355, 357, 359, 360, 363, 365
    3    7 N      9, 12, 41, 43, 47, 49, 50, 74, 76, 79, 80, 82, 106, 109,
                  138, 141, 143, 168, 170, 173, 174, 176, 197, 200, 229, 231,
                  235, 237, 238, 262, 264, 267, 268, 270, 294, 297, 326, 329,
                  331, 356, 358, 361, 362, 364
    4    1 H      18-29, 52-62, 84-94, 115-126, 146-156, 178-188, 206-217,
                  240-250, 272-282, 303-314, 334-344, 366-390
    5   15 P      30, 63, 95, 127, 157, 218, 251, 283, 315, 345

molecular fragmentation (1/2 indicates fragments):
111111111111111111111111111111111111111111111111111111111111111111111111
111111111111111111111111111111111111111111111111111111111111111111111111
111111111111111111111111111111111111111111112222222222222222222222222222
222222222222222222222222222222222222222222222222222222222222222222222222
222222222222222222222222222222222222222222222222222222222222222222222222
222222222222222222112222211111
# atoms in fragment 1/2:   195   195
 fragment masses (1/2) :     1791.23     1791.23
CMA distance (Bohr)    :  12.632
constraining FC (au)   :  0.0500

           -------------------------------------------------
          |                 G F N 2 - x T B                 |
           -------------------------------------------------

        Reference                      10.1021/acs.jctc.8b01176
      * Hamiltonian:
        H0-scaling (s, p, d)           1.850000    2.230000    2.230000
        zeta-weighting                 0.500000
      * Dispersion:
        s8                             2.700000
        a1                             0.520000
        a2                             5.000000
        s9                             5.000000
      * Repulsion:
        kExp                           1.500000    1.000000
        rExp                           1.000000
      * Coulomb:
        alpha                          2.000000
        third order                    shell-resolved
        anisotropic                    true
        a3                             3.000000
        a5                             4.000000
        cn-shift                       1.200000
        cn-exp                         4.000000
        max-rad                        5.000000

      * Solvation model:               GBSA
        Solvent                        water
        Parameter file                 internal GFN2-xTB/GBSA
        Dielectric constant                8.0200E+01
        Reference state                gsolv [1 M gas/solution]
        Free energy shift                  1.8574E-03 Eh       1.1656E+00 kcal/mol
        Temperature                        2.9815E+02 K
        Density                            1.0000E+00 kg/L
        Solvent mass                       1.8000E+01 g/mol
        Interaction kernel             Still
        Born radius scaling (c1)           1.5524E+00
        Born radii integrator          GBOBC
        Born offset                        2.4628E-02 a0       4.6540E-02 AA
        H-bond correction              true
        Ion screening                  false
        Surface tension                    1.0000E-05 Eh       1.5569E+01 dyn/cm
        Grid points                               230 per atom
q/qsh data taken from xtbrestart
CAMM data taken from xtbrestart

          ...................................................
          :                      SETUP                      :
          :.................................................:
          :  # basis functions                1170          :
          :  # atomic orbitals                1160          :
          :  # shells                          640          :
          :  # electrons                      1300          :
          :  max. iterations                   250          :
          :  Hamiltonian                  GFN2-xTB          :
          :  restarted?                       true          :
          :  GBSA solvation                   true          :
          :  PC potential                    false          :
          :  electronic temp.          300.0000000     K    :
          :  accuracy                    1.0000000          :
          :  -> integral cutoff          0.2500000E+02      :
          :  -> integral neglect         0.1000000E-07      :
          :  -> SCF convergence          0.1000000E-05 Eh   :
          :  -> wf. convergence          0.1000000E-03 e    :
          :  Broyden damping             0.4000000          :
          ...................................................

 iter      E             dE          RMSdq      gap      omega  full diag
   1   -769.4196987 -0.769420E+03  0.224E-01    2.48       0.0  T
   2   -769.4266352 -0.693652E-02  0.915E-02    2.60       1.0  T
   3   -769.4275050 -0.869778E-03  0.518E-02    2.57       1.0  T
   4   -769.4277428 -0.237781E-03  0.270E-02    2.57       1.0  T
   5   -769.4278492 -0.106459E-03  0.105E-02    2.58       1.0  T
   6   -769.4278583 -0.908025E-05  0.573E-03    2.57       1.0  T
   7   -769.4278618 -0.348658E-05  0.292E-03    2.57       1.7  T
   8   -769.4278625 -0.746930E-06  0.165E-03    2.57       3.1  T
   9   -769.4278628 -0.252952E-06  0.759E-04    2.57       6.7  T
  10   -769.4278629 -0.817165E-07  0.361E-04    2.57      14.0  T

   *** convergence criteria satisfied after 10 iterations ***

         #    Occupation            Energy/Eh            Energy/eV
      -------------------------------------------------------------
         1        2.0000           -0.7856336             -21.3782
       ...           ...                  ...                  ...
       644        2.0000           -0.3923265             -10.6757
       645        2.0000           -0.3908370             -10.6352
       646        2.0000           -0.3883530             -10.5676
       647        2.0000           -0.3866229             -10.5205
       648        2.0000           -0.3846900             -10.4679
       649        2.0000           -0.3833022             -10.4302
       650        2.0000           -0.3832404             -10.4285 (HOMO)
       651                         -0.2886233              -7.8538 (LUMO)
       652                         -0.2877799              -7.8309
       653                         -0.2865506              -7.7974
       654                         -0.2862004              -7.7879
       655                         -0.2728461              -7.4245
       ...                                ...                  ...
      1160                          1.4817263              40.3198
      -------------------------------------------------------------
                  HL-Gap            0.0946171 Eh            2.5747 eV
             Fermi-level           -0.3359318 Eh           -9.1412 eV

 SCC (total)                   0 d,  0 h,  0 min,  2.322 sec
 SCC setup                      ...        0 min,  0.022 sec (  0.945%)
 Dispersion                     ...        0 min,  0.048 sec (  2.070%)
 classical contributions        ...        0 min,  0.001 sec (  0.060%)
 integral evaluation            ...        0 min,  0.154 sec (  6.622%)
 iterations                     ...        0 min,  1.469 sec ( 63.284%)
 molecular gradient             ...        0 min,  0.612 sec ( 26.368%)
 printout                       ...        0 min,  0.015 sec (  0.650%)

         :::::::::::::::::::::::::::::::::::::::::::::::::::::
         ::                     SUMMARY                     ::
         :::::::::::::::::::::::::::::::::::::::::::::::::::::
         :: total energy            -762.046989461487 Eh    ::
         :: total w/o Gsasa/hb      -761.921969238545 Eh    ::
         :: gradient norm              0.509815378158 Eh/a0 ::
         :: HOMO-LUMO gap              2.574662949447 eV    ::
         ::.................................................::
         :: SCC energy              -769.427862882208 Eh    ::
         :: -> isotropic ES            2.520447479198 Eh    ::
         :: -> anisotropic ES         -0.137063977567 Eh    ::
         :: -> anisotropic XC          0.145353559032 Eh    ::
         :: -> dispersion             -0.655688385341 Eh    ::
         :: -> Gsolv                  -0.406050507846 Eh    ::
         ::    -> Gelec               -0.281030284904 Eh    ::
         ::    -> Gsasa               -0.009959904714 Eh    ::
         ::    -> Ghb                 -0.116917761355 Eh    ::
         ::    -> Gshift               0.001857443127 Eh    ::
         :: repulsion energy           7.333279437644 Eh    ::
         :: add. restraining           0.000000000000 Eh    ::
         :: total charge               0.000000000000 e     ::
         :::::::::::::::::::::::::::::::::::::::::::::::::::::

           -------------------------------------------------
          |                Property Printout                |
           -------------------------------------------------

    * Orbital Energies and Occupations

         #    Occupation            Energy/Eh            Energy/eV
      -------------------------------------------------------------
         1        2.0000           -0.7856336             -21.3782
       ...           ...                  ...                  ...
       638        2.0000           -0.3998356             -10.8801
       639        2.0000           -0.3996703             -10.8756
       640        2.0000           -0.3977561             -10.8235
       641        2.0000           -0.3955074             -10.7623
       642        2.0000           -0.3936459             -10.7117
       643        2.0000           -0.3927700             -10.6878
       644        2.0000           -0.3923265             -10.6757
       645        2.0000           -0.3908370             -10.6352
       646        2.0000           -0.3883530             -10.5676
       647        2.0000           -0.3866229             -10.5205
       648        2.0000           -0.3846900             -10.4679
       649        2.0000           -0.3833022             -10.4302
       650        2.0000           -0.3832404             -10.4285 (HOMO)
       651                         -0.2886233              -7.8538 (LUMO)
       652                         -0.2877799              -7.8309
       653                         -0.2865506              -7.7974
       654                         -0.2862004              -7.7879
       655                         -0.2728461              -7.4245
       656                         -0.2713870              -7.3848
       657                         -0.2683405              -7.3019
       658                         -0.2661762              -7.2430
       659                         -0.2643791              -7.1941
       660                         -0.2616484              -7.1198
       661                         -0.2531464              -6.8885
       ...                                ...                  ...
      1160                          1.4817263              40.3198
      -------------------------------------------------------------
                  HL-Gap            0.0946171 Eh            2.5747 eV
             Fermi-level           -0.3359318 Eh           -9.1412 eV

 * generalized Born model for continuum solvation

     #   Z     Born rad/Å   SASA/Å²    H-bond
     1   8 O        2.219    20.307    -0.003
     2   6 C        2.692     1.948    -0.000
     3   6 C        3.181     0.084    -0.000
     4   8 O        2.919     4.360    -0.001
     5   6 C        3.158     0.334    -0.000
     6   8 O        2.599     5.221    -0.001
     7   6 C        3.171     0.562    -0.000
     8   6 C        3.509     0.034    -0.000
     9   7 N        3.420     0.233    -0.000
    10   6 C        3.372     3.693    -0.000
    11   8 O        2.538    10.163    -0.001
    12   7 N        3.038     2.125    -0.001
    13   6 C        3.122     5.284    -0.000
    14   8 O        2.430    13.814    -0.002
    15   6 C        3.326     4.392    -0.000
    16   6 C        2.617     3.588    -0.000
    17   6 C        3.199     5.386    -0.000
    18   1 H        2.035    19.505    -0.026
    19   1 H        2.084    15.650    -0.021
    20   1 H        2.203    12.633    -0.017
    21   1 H        2.155    12.500    -0.017
    22   1 H        2.299     9.452    -0.013
    23   1 H        2.311     4.661    -0.006
    24   1 H        2.501     1.890    -0.003
    25   1 H        2.794     1.610    -0.002
    26   1 H        2.068    16.872    -0.023
    27   1 H        2.060    19.327    -0.026
    28   1 H        2.066    19.014    -0.025
    29   1 H        2.288     7.760    -0.010
    30  15 P        3.213     9.026    -0.001
    31   8 O        2.212    15.071    -0.002
    32   8 O        2.198    22.815    -0.003
    33   8 O        2.629     1.541    -0.000
    34   6 C        2.892     0.363    -0.000
    35   6 C        3.241     0.320    -0.000
    36   8 O        2.934     4.776    -0.001
    37   6 C        3.349     0.089    -0.000
    38   8 O        2.635     5.366    -0.001
    39   6 C        3.320     0.385    -0.000
    40   6 C        3.673     0.291    -0.000
    41   7 N        3.952     0.009    -0.000
    42   6 C        3.309     3.819    -0.000
    43   7 N        2.921    11.130    -0.003
    44   6 C        4.278     0.058    -0.000
    45   6 C        3.655     0.030    -0.000
    46   8 O        2.629     8.795    -0.001
    47   7 N        3.699     0.000    -0.000
    48   6 C        4.164     0.052    -0.000
    49   7 N        2.830     0.865    -0.000
    50   7 N        3.376     3.262    -0.001
    51   6 C        4.553     0.255    -0.000
    52   1 H        2.175    10.498    -0.014
    53   1 H        2.199     8.596    -0.011
    54   1 H        2.196    15.216    -0.020
    55   1 H        2.303     7.984    -0.011
    56   1 H        2.366    10.210    -0.014
    57   1 H        2.483     1.445    -0.002
    58   1 H        2.532     4.870    -0.007
    59   1 H        2.321     6.156    -0.008
    60   1 H        3.317     0.004    -0.000
    61   1 H        2.604     2.909    -0.004
    62   1 H        2.328    13.853    -0.019
    63  15 P        3.245     7.531    -0.001
    64   8 O        2.220    11.642    -0.002
    65   8 O        2.213    22.834    -0.003
    66   8 O        2.696     1.294    -0.000
    67   6 C        2.957     0.307    -0.000
    68   6 C        3.355     0.170    -0.000
    69   8 O        3.035     4.268    -0.001
    70   6 C        3.401     0.168    -0.000
    71   8 O        2.647     5.204    -0.001
    72   6 C        3.533     0.034    -0.000
    73   6 C        3.844     0.021    -0.000
    74   7 N        4.335     0.000     0.000
    75   6 C        3.554     0.746    -0.000
    76   7 N        3.107     8.043    -0.002
    77   6 C        4.950     0.050    -0.000
    78   6 C        4.245     0.010    -0.000
    79   7 N        2.760     0.579    -0.000
    80   7 N        3.673     0.015    -0.000
    81   6 C        3.546     0.201    -0.000
    82   7 N        3.331     2.338    -0.001
    83   6 C        5.008     0.000     0.000
    84   1 H        2.232     9.282    -0.012
    85   1 H        2.196    11.536    -0.015
    86   1 H        2.236    15.168    -0.020
    87   1 H        2.314     8.433    -0.011
    88   1 H        2.573     3.810    -0.005
    89   1 H        2.656     0.000    -0.000
    90   1 H        2.574     3.321    -0.004
    91   1 H        2.492     3.981    -0.005
    92   1 H        2.565     2.664    -0.004
    93   1 H        2.273    16.145    -0.022
    94   1 H        2.431     7.725    -0.010
    95  15 P        3.243     7.462    -0.001
    96   8 O        2.215    12.112    -0.002
    97   8 O        2.219    21.630    -0.003
    98   8 O        2.681     1.662    -0.000
    99   6 C        2.905     0.451    -0.000
   100   6 C        3.345     0.173    -0.000
   101   8 O        3.082     3.409    -0.000
   102   6 C        3.328     0.234    -0.000
   103   8 O        2.645     4.907    -0.001
   104   6 C        3.405     0.407    -0.000
   105   6 C        3.801     0.135    -0.000
   106   7 N        3.936     0.000     0.000
   107   6 C        3.761     0.001    -0.000
   108   8 O        2.652     6.238    -0.001
   109   7 N        3.494     0.004    -0.000
   110   6 C        3.637     0.023    -0.000
   111   8 O        2.637     8.857    -0.001
   112   6 C        3.980     0.155    -0.000
   113   6 C        2.853     2.367    -0.000
   114   6 C        3.726     0.864    -0.000
   115   1 H        2.209    10.068    -0.013
   116   1 H        2.147    13.211    -0.018
   117   1 H        2.242    14.909    -0.020
   118   1 H        2.257     8.668    -0.012
   119   1 H        2.437     7.592    -0.010
   120   1 H        2.501     0.979    -0.001
   121   1 H        2.502     6.368    -0.009
   122   1 H        3.138     0.019    -0.000
   123   1 H        2.371     5.669    -0.008
   124   1 H        2.266     9.605    -0.013
   125   1 H        2.158    15.978    -0.021
   126   1 H        2.599     1.720    -0.002
   127  15 P        3.228     7.123    -0.001
   128   8 O        2.222    11.167    -0.002
   129   8 O        2.206    23.496    -0.003
   130   8 O        2.684     0.593    -0.000
   131   6 C        2.879     0.548    -0.000
   132   6 C        3.285     0.177    -0.000
   133   8 O        2.945     5.673    -0.001
   134   6 C        3.285     0.269    -0.000
   135   8 O        2.622     5.188    -0.001
   136   6 C        3.326     0.391    -0.000
   137   6 C        3.640     0.285    -0.000
   138   7 N        3.688     0.008    -0.000
   139   6 C        3.611     0.269    -0.000
   140   8 O        2.742     5.568    -0.001
   141   7 N        3.538     0.000    -0.000
   142   6 C        3.807     0.098    -0.000
   143   7 N        2.669     1.635    -0.000
   144   6 C        3.361     3.634    -0.000
   145   6 C        3.446     2.742    -0.000
   146   1 H        2.161    11.987    -0.016
   147   1 H        2.145    12.839    -0.017
   148   1 H        2.215    14.895    -0.020
   149   1 H        2.249     9.135    -0.012
   150   1 H        2.410     8.589    -0.011
   151   1 H        2.395     3.139    -0.004
   152   1 H        2.467     4.060    -0.005
   153   1 H        2.529     2.616    -0.003
   154   1 H        2.226    13.492    -0.018
   155   1 H        2.218    10.865    -0.015
   156   1 H        2.475     3.356    -0.004
   157  15 P        3.227     7.066    -0.001
   158   8 O        2.213    11.630    -0.002
   159   8 O        2.211    22.256    -0.003
   160   8 O        2.623     1.475    -0.000
   161   6 C        2.862     0.381    -0.000
   162   6 C        3.164     0.229    -0.000
   163   8 O        2.850     7.419    -0.001
   164   6 C        3.076     0.540    -0.000
   165   8 O        2.266    16.205    -0.002
   166   6 C        3.073     1.247    -0.000
   167   6 C        3.367     0.552    -0.000
   168   7 N        3.676     0.332    -0.000
   169   6 C        3.280     3.252    -0.000
   170   7 N        2.920     9.881    -0.003
   171   6 C        4.149     3.206    -0.000
   172   6 C        3.685     3.867    -0.000
   173   7 N        2.621     3.838    -0.001
   174   7 N        3.226     2.710    -0.001
   175   6 C        3.137     5.764    -0.000
   176   7 N        2.883     8.886    -0.003
   177   6 C        4.015     3.156    -0.000
   178   1 H        2.188     9.645    -0.013
   179   1 H        2.145    12.482    -0.017
   180   1 H        2.173    15.652    -0.021
   181   1 H        2.178    13.094    -0.017
   182   1 H        2.293    10.763    -0.014
   183   1 H        2.159    15.075    -0.020
   184   1 H        2.287    14.082    -0.019
   185   1 H        2.387     3.277    -0.004
   186   1 H        2.416     3.579    -0.005
   187   1 H        2.220    14.830    -0.020
   188   1 H        2.274    12.356    -0.017
   189   8 O        2.219    20.358    -0.003
   190   6 C        2.691     1.952    -0.000
   191   6 C        3.173     0.120    -0.000
   192   8 O        2.899     4.950    -0.001
   193   6 C        3.168     0.380    -0.000
   194   8 O        2.602     4.805    -0.001
   195   6 C        3.182     0.546    -0.000
   196   6 C        3.495     0.082    -0.000
   197   7 N        3.416     0.247    -0.000
   198   6 C        3.361     3.756    -0.000
   199   8 O        2.530    10.418    -0.001
   200   7 N        3.036     2.208    -0.001
   201   6 C        3.122     5.293    -0.000
   202   8 O        2.431    13.890    -0.002
   203   6 C        3.327     4.395    -0.000
   204   6 C        2.618     3.586    -0.000
   205   6 C        3.206     4.947    -0.000
   206   1 H        2.035    19.584    -0.026
   207   1 H        2.087    15.228    -0.020
   208   1 H        2.194    13.674    -0.018
   209   1 H        2.163    11.646    -0.016
   210   1 H        2.302     9.663    -0.013
   211   1 H        2.320     4.162    -0.006
   212   1 H        2.468     2.841    -0.004
   213   1 H        2.801     1.441    -0.002
   214   1 H        2.067    19.012    -0.025
   215   1 H        2.068    16.889    -0.023
   216   1 H        2.061    19.308    -0.026
   217   1 H        2.292     7.360    -0.010
   218  15 P        3.213     6.850    -0.001
   219   8 O        2.213    11.410    -0.002
   220   8 O        2.206    22.131    -0.003
   221   8 O        2.609     1.515    -0.000
   222   6 C        2.866     0.391    -0.000
   223   6 C        3.229     0.304    -0.000
   224   8 O        2.913     5.432    -0.001
   225   6 C        3.345     0.083    -0.000
   226   8 O        2.629     5.629    -0.001
   227   6 C        3.338     0.297    -0.000
   228   6 C        3.663     0.355    -0.000
   229   7 N        3.944     0.018    -0.000
   230   6 C        3.313     3.513    -0.000
   231   7 N        2.922    11.202    -0.003
   232   6 C        4.277     0.063    -0.000
   233   6 C        3.656     0.032    -0.000
   234   8 O        2.630     8.698    -0.001
   235   7 N        3.698     0.000    -0.000
   236   6 C        4.165     0.006    -0.000
   237   7 N        2.828     0.988    -0.000
   238   7 N        3.370     3.020    -0.001
   239   6 C        4.542     0.275    -0.000
   240   1 H        2.158    11.714    -0.016
   241   1 H        2.153    12.039    -0.016
   242   1 H        2.189    15.157    -0.020
   243   1 H        2.305     8.069    -0.011
   244   1 H        2.380     9.839    -0.013
   245   1 H        2.526     1.247    -0.002
   246   1 H        2.527     4.779    -0.006
   247   1 H        2.328     5.783    -0.008
   248   1 H        3.320     0.006    -0.000
   249   1 H        2.621     2.621    -0.004
   250   1 H        2.302    15.526    -0.021
   251  15 P        3.252     7.213    -0.001
   252   8 O        2.219    13.177    -0.002
   253   8 O        2.214    23.199    -0.003
   254   8 O        2.731     0.974    -0.000
   255   6 C        2.972     0.313    -0.000
   256   6 C        3.353     0.260    -0.000
   257   8 O        3.009     5.029    -0.001
   258   6 C        3.410     0.207    -0.000
   259   8 O        2.648     5.184    -0.001
   260   6 C        3.551     0.023    -0.000
   261   6 C        3.829     0.064    -0.000
   262   7 N        4.315     0.000    -0.000
   263   6 C        3.572     0.697    -0.000
   264   7 N        3.114     7.865    -0.002
   265   6 C        4.948     0.048    -0.000
   266   6 C        4.245     0.009    -0.000
   267   7 N        2.757     0.585    -0.000
   268   7 N        3.667     0.017    -0.000
   269   6 C        3.535     0.220    -0.000
   270   7 N        3.308     2.955    -0.001
   271   6 C        4.971     0.001    -0.000
   272   1 H        2.237     8.941    -0.012
   273   1 H        2.206    10.701    -0.014
   274   1 H        2.226    15.533    -0.021
   275   1 H        2.323     7.496    -0.010
   276   1 H        2.602     3.285    -0.004
   277   1 H        2.676     0.000    -0.000
   278   1 H        2.558     4.312    -0.006
   279   1 H        2.539     3.142    -0.004
   280   1 H        2.560     2.782    -0.004
   281   1 H        2.287    15.907    -0.021
   282   1 H        2.427     7.818    -0.010
   283  15 P        3.244     9.098    -0.001
   284   8 O        2.215    15.090    -0.002
   285   8 O        2.212    22.282    -0.003
   286   8 O        2.698     1.552    -0.000
   287   6 C        2.920     0.430    -0.000
   288   6 C        3.341     0.182    -0.000
   289   8 O        3.070     3.671    -0.001
   290   6 C        3.329     0.243    -0.000
   291   8 O        2.640     5.073    -0.001
   292   6 C        3.414     0.394    -0.000
   293   6 C        3.792     0.158    -0.000
   294   7 N        3.938     0.000     0.000
   295   6 C        3.761     0.002    -0.000
   296   8 O        2.649     6.527    -0.001
   297   7 N        3.500     0.002    -0.000
   298   6 C        3.647     0.006    -0.000
   299   8 O        2.641     8.709    -0.001
   300   6 C        3.996     0.104    -0.000
   301   6 C        2.854     2.362    -0.000
   302   6 C        3.736     0.774    -0.000
   303   1 H        2.210    10.284    -0.014
   304   1 H        2.177    10.007    -0.013
   305   1 H        2.236    15.077    -0.020
   306   1 H        2.261     8.603    -0.011
   307   1 H        2.443     7.364    -0.010
   308   1 H        2.521     0.826    -0.001
   309   1 H        2.497     6.606    -0.009
   310   1 H        3.139     0.014    -0.000
   311   1 H        2.266     9.689    -0.013
   312   1 H        2.162    15.410    -0.021
   313   1 H        2.355     6.077    -0.008
   314   1 H        2.609     1.652    -0.002
   315  15 P        3.230     8.738    -0.001
   316   8 O        2.222    15.106    -0.002
   317   8 O        2.200    24.092    -0.003
   318   8 O        2.703     0.473    -0.000
   319   6 C        2.900     0.508    -0.000
   320   6 C        3.287     0.192    -0.000
   321   8 O        2.944     6.055    -0.001
   322   6 C        3.285     0.309    -0.000
   323   8 O        2.623     5.086    -0.001
   324   6 C        3.332     0.361    -0.000
   325   6 C        3.643     0.287    -0.000
   326   7 N        3.694     0.010    -0.000
   327   6 C        3.612     0.324    -0.000
   328   8 O        2.742     5.699    -0.001
   329   7 N        3.541     0.000    -0.000
   330   6 C        3.808     0.118    -0.000
   331   7 N        2.671     2.570    -0.001
   332   6 C        3.364     3.652    -0.000
   333   6 C        3.456     2.562    -0.000
   334   1 H        2.165    11.965    -0.016
   335   1 H        2.192     9.423    -0.013
   336   1 H        2.212    15.117    -0.020
   337   1 H        2.248     9.139    -0.012
   338   1 H        2.414     8.577    -0.011
   339   1 H        2.406     3.036    -0.004
   340   1 H        2.470     4.207    -0.006
   341   1 H        2.551     2.225    -0.003
   342   1 H        2.236    11.912    -0.016
   343   1 H        2.219    11.049    -0.015
   344   1 H        2.488     3.198    -0.004
   345  15 P        3.228     8.666    -0.001
   346   8 O        2.215    15.109    -0.002
   347   8 O        2.203    23.066    -0.003
   348   8 O        2.641     1.406    -0.000
   349   6 C        2.884     0.373    -0.000
   350   6 C        3.190     0.205    -0.000
   351   8 O        2.847     7.914    -0.001
   352   6 C        3.073     0.565    -0.000
   353   8 O        2.265    16.234    -0.002
   354   6 C        3.042     1.390    -0.000
   355   6 C        3.357     0.602    -0.000
   356   7 N        3.665     0.313    -0.000
   357   6 C        3.285     3.009    -0.000
   358   7 N        2.925     9.767    -0.003
   359   6 C        4.155     3.204    -0.000
   360   6 C        3.689     3.841    -0.000
   361   7 N        2.617     3.934    -0.001
   362   7 N        3.224     2.656    -0.001
   363   6 C        3.133     5.848    -0.000
   364   7 N        2.876     9.993    -0.003
   365   6 C        4.012     3.193    -0.000
   366   1 H        2.192     9.799    -0.013
   367   1 H        2.195     8.844    -0.012
   368   1 H        2.198    13.386    -0.018
   369   1 H        2.178    13.110    -0.018
   370   1 H        1.951    19.155    -0.026
   371   1 H        2.280    10.963    -0.015
   372   1 H        2.134    17.407    -0.023
   373   1 H        2.285    13.992    -0.019
   374   1 H        2.400     2.946    -0.004
   375   1 H        2.407     3.973    -0.005
   376   1 H        2.237    14.337    -0.019
   377   1 H        2.273    12.528    -0.017
   378   1 H        2.019    14.676    -0.020
   379   1 H        2.016    15.280    -0.020
   380   1 H        1.949    19.309    -0.026
   381   1 H        1.891    23.539    -0.031
   382   1 H        1.911    20.943    -0.028
   383   1 H        1.944    16.872    -0.023
   384   1 H        1.964    15.862    -0.021
   385   1 H        1.953    16.424    -0.022
   386   1 H        1.951    16.196    -0.022
   387   1 H        1.895    23.401    -0.031
   388   1 H        1.894    23.526    -0.031
   389   1 H        1.895    23.502    -0.031
   390   1 H        1.892    23.527    -0.031

 total SASA / Å² :     2497.159

     #   Z          covCN         q      C6AA      α(0)
     1   8 O        1.652    -0.472    22.293     6.374
     2   6 C        3.669     0.056    19.881     6.392
     3   6 C        3.783     0.084    19.201     6.242
     4   8 O        1.700    -0.331    19.536     5.968
     5   6 C        3.884     0.105    18.818     6.167
     6   8 O        1.651    -0.348    19.879     6.019
     7   6 C        3.835    -0.090    22.183     6.701
     8   6 C        3.714     0.173    17.942     6.052
     9   7 N        2.744    -0.068    22.564     7.055
    10   6 C        2.705     0.335    21.307     7.555
    11   8 O        0.859    -0.491    23.579     6.510
    12   7 N        2.694    -0.199    25.332     7.475
    13   6 C        2.763     0.287    22.135     7.705
    14   8 O        0.859    -0.459    22.889     6.414
    15   6 C        2.958    -0.031    28.764     8.797
    16   6 C        3.772    -0.133    23.096     6.848
    17   6 C        2.872     0.016    27.644     8.619
    18   1 H        0.924     0.076     2.024     2.225
    19   1 H        0.924     0.058     2.222     2.331
    20   1 H        0.924     0.074     2.043     2.235
    21   1 H        0.924     0.079     1.990     2.206
    22   1 H        0.925     0.090     1.876     2.142
    23   1 H        0.925     0.073     2.051     2.239
    24   1 H        0.923     0.061     2.189     2.314
    25   1 H        0.854     0.233     0.953     1.529
    26   1 H        0.924     0.076     2.017     2.221
    27   1 H        0.925     0.085     1.930     2.173
    28   1 H        0.924     0.082     1.963     2.191
    29   1 H        0.926     0.113     1.675     2.024
    30  15 P        3.708     0.721   131.987    20.637
    31   8 O        1.614    -0.364    20.183     6.063
    32   8 O        0.808    -0.562    25.229     6.733
    33   8 O        1.652    -0.354    19.986     6.035
    34   6 C        3.894     0.049    19.699     6.309
    35   6 C        3.784     0.092    19.081     6.222
    36   8 O        1.698    -0.317    19.288     5.929
    37   6 C        3.955     0.105    18.789     6.159
    38   8 O        1.653    -0.345    19.820     6.010
    39   6 C        3.822    -0.093    22.246     6.712
    40   6 C        3.739     0.174    17.894     6.036
    41   7 N        2.819    -0.056    22.321     7.017
    42   6 C        3.140     0.096    25.641     8.287
    43   7 N        1.873    -0.288    28.326     7.889
    44   6 C        3.196    -0.001    27.513     8.551
    45   6 C        2.764     0.270    22.446     7.759
    46   8 O        0.858    -0.475    23.248     6.465
    47   7 N        2.697    -0.212    25.621     7.518
    48   6 C        2.839     0.239    23.013     7.862
    49   7 N        2.640    -0.286    27.392     7.773
    50   7 N        1.833    -0.342    29.731     8.080
    51   6 C        3.103     0.138    24.868     8.171
    52   1 H        0.925     0.094     1.845     2.124
    53   1 H        0.924     0.078     2.004     2.214
    54   1 H        0.925     0.103     1.757     2.073
    55   1 H        0.924     0.072     2.065     2.247
    56   1 H        0.925     0.080     1.983     2.202
    57   1 H        0.926     0.081     1.971     2.195
    58   1 H        0.924     0.066     2.126     2.280
    59   1 H        0.925     0.063     2.168     2.303
    60   1 H        0.854     0.224     0.991     1.560
    61   1 H        0.859     0.225     0.986     1.556
    62   1 H        0.860     0.233     0.954     1.530
    63  15 P        3.771     0.744   131.195    20.575
    64   8 O        1.614    -0.385    20.577     6.122
    65   8 O        0.808    -0.588    25.865     6.817
    66   8 O        1.653    -0.345    19.806     6.008
    67   6 C        3.926     0.051    19.665     6.302
    68   6 C        3.883     0.091    19.030     6.202
    69   8 O        1.701    -0.311    19.192     5.915
    70   6 C        3.940     0.105    18.804     6.162
    71   8 O        1.652    -0.349    19.893     6.021
    72   6 C        3.878    -0.099    22.333     6.719
    73   6 C        3.766     0.170    17.917     6.033
    74   7 N        2.848    -0.074    22.668     7.071
    75   6 C        3.175     0.104    25.322     8.218
    76   7 N        1.885    -0.299    28.592     7.927
    77   6 C        3.253     0.024    26.409     8.314
    78   6 C        2.883     0.172    24.305     8.082
    79   7 N        2.639    -0.265    26.865     7.698
    80   7 N        1.842    -0.322    29.200     8.008
    81   6 C        2.963     0.150    24.738     8.158
    82   7 N        1.828    -0.324    29.240     8.013
    83   6 C        3.185     0.141    24.521     8.080
    84   1 H        0.925     0.085     1.930     2.172
    85   1 H        0.924     0.086     1.919     2.166
    86   1 H        0.925     0.103     1.758     2.073
    87   1 H        0.924     0.078     1.996     2.209
    88   1 H        0.925     0.086     1.913     2.163
    89   1 H        0.926     0.087     1.912     2.162
    90   1 H        0.924     0.071     2.079     2.255
    91   1 H        0.926     0.066     2.128     2.281
    92   1 H        0.859     0.236     0.939     1.518
    93   1 H        0.858     0.229     0.969     1.542
    94   1 H        0.925     0.035     2.519     2.482
    95  15 P        3.734     0.740   131.338    20.587
    96   8 O        1.614    -0.386    20.601     6.126
    97   8 O        0.808    -0.587    25.831     6.813
    98   8 O        1.652    -0.333    19.594     5.975
    99   6 C        3.888     0.048    19.716     6.313
   100   6 C        3.839     0.087    19.115     6.220
   101   8 O        1.699    -0.315    19.262     5.925
   102   6 C        3.942     0.103    18.825     6.165
   103   8 O        1.652    -0.349    19.898     6.022
   104   6 C        3.870    -0.094    22.245     6.707
   105   6 C        3.756     0.175    17.857     6.025
   106   7 N        2.746    -0.079    22.786     7.090
   107   6 C        2.701     0.333    21.332     7.559
   108   8 O        0.859    -0.482    23.381     6.483
   109   7 N        2.692    -0.206    25.486     7.498
   110   6 C        2.764     0.282    22.228     7.721
   111   8 O        0.859    -0.454    22.781     6.399
   112   6 C        2.959    -0.040    28.995     8.832
   113   6 C        3.763    -0.134    23.120     6.854
   114   6 C        2.875     0.014    27.705     8.629
   115   1 H        0.924     0.093     1.846     2.125
   116   1 H        0.924     0.092     1.861     2.133
   117   1 H        0.925     0.100     1.786     2.090
   118   1 H        0.924     0.085     1.931     2.173
   119   1 H        0.925     0.090     1.880     2.144
   120   1 H        0.925     0.077     2.010     2.217
   121   1 H        0.924     0.066     2.133     2.284
   122   1 H        0.852     0.234     0.948     1.526
   123   1 H        0.925     0.067     2.116     2.275
   124   1 H        0.925     0.081     1.972     2.196
   125   1 H        0.925     0.094     1.839     2.121
   126   1 H        0.925     0.110     1.697     2.037
   127  15 P        3.751     0.745   131.186    20.575
   128   8 O        1.614    -0.387    20.618     6.129
   129   8 O        0.808    -0.587    25.838     6.814
   130   8 O        1.652    -0.340    19.731     5.996
   131   6 C        3.890     0.049    19.701     6.310
   132   6 C        3.813     0.091    19.065     6.215
   133   8 O        1.697    -0.327    19.473     5.958
   134   6 C        3.904     0.108    18.766     6.158
   135   8 O        1.651    -0.353    19.971     6.033
   136   6 C        3.861    -0.085    22.085     6.683
   137   6 C        3.717     0.177    17.882     6.041
   138   7 N        2.740    -0.070    22.601     7.061
   139   6 C        2.729     0.347    21.099     7.520
   140   8 O        0.861    -0.519    24.213     6.597
   141   7 N        1.837    -0.345    29.802     8.090
   142   6 C        2.855     0.177    24.196     8.062
   143   7 N        2.635    -0.277    27.157     7.740
   144   6 C        2.904    -0.100    30.518     9.058
   145   6 C        2.875     0.042    27.044     8.525
   146   1 H        0.924     0.094     1.842     2.122
   147   1 H        0.924     0.094     1.839     2.121
   148   1 H        0.925     0.094     1.839     2.121
   149   1 H        0.924     0.079     1.987     2.204
   150   1 H        0.925     0.084     1.934     2.175
   151   1 H        0.925     0.070     2.088     2.260
   152   1 H        0.924     0.058     2.217     2.329
   153   1 H        0.859     0.241     0.920     1.503
   154   1 H        0.860     0.224     0.990     1.558
   155   1 H        0.926     0.095     1.831     2.116
   156   1 H        0.926     0.088     1.895     2.153
   157  15 P        3.745     0.739   131.383    20.590
   158   8 O        1.614    -0.385    20.577     6.123
   159   8 O        0.808    -0.589    25.890     6.821
   160   8 O        1.653    -0.343    19.772     6.003
   161   6 C        3.913     0.056    19.589     6.291
   162   6 C        3.775     0.092    19.079     6.224
   163   8 O        1.697    -0.336    19.640     5.983
   164   6 C        3.733     0.108    18.894     6.204
   165   8 O        1.653    -0.483    22.530     6.408
   166   6 C        3.827    -0.091    22.213     6.706
   167   6 C        3.699     0.169    18.039     6.074
   168   7 N        2.849    -0.068    22.561     7.055
   169   6 C        3.178     0.107    25.258     8.206
   170   7 N        1.885    -0.311    28.919     7.972
   171   6 C        3.255     0.022    26.434     8.316
   172   6 C        2.883     0.173    24.288     8.079
   173   7 N        2.640    -0.262    26.791     7.687
   174   7 N        1.842    -0.324    29.247     8.015
   175   6 C        2.963     0.148    24.790     8.167
   176   7 N        1.828    -0.323    29.223     8.010
   177   6 C        3.186     0.142    24.499     8.076
   178   1 H        0.924     0.076     2.020     2.223
   179   1 H        0.924     0.082     1.961     2.190
   180   1 H        0.925     0.095     1.836     2.119
   181   1 H        0.924     0.053     2.289     2.366
   182   1 H        0.924     0.063     2.159     2.298
   183   1 H        0.925     0.083     1.949     2.183
   184   1 H        0.924     0.075     2.032     2.229
   185   1 H        0.925     0.053     2.281     2.362
   186   1 H        0.858     0.242     0.915     1.499
   187   1 H        0.859     0.223     0.996     1.564
   188   1 H        0.925     0.039     2.464     2.455
   189   8 O        1.652    -0.471    22.282     6.372
   190   6 C        3.669     0.055    19.891     6.394
   191   6 C        3.784     0.084    19.211     6.243
   192   8 O        1.699    -0.330    19.523     5.965
   193   6 C        3.897     0.104    18.824     6.168
   194   8 O        1.651    -0.351    19.933     6.027
   195   6 C        3.839    -0.089    22.158     6.696
   196   6 C        3.713     0.173    17.940     6.052
   197   7 N        2.743    -0.069    22.579     7.057
   198   6 C        2.703     0.335    21.305     7.555
   199   8 O        0.859    -0.493    23.621     6.516
   200   7 N        2.694    -0.199    25.317     7.473
   201   6 C        2.763     0.287    22.137     7.705
   202   8 O        0.859    -0.457    22.855     6.410
   203   6 C        2.958    -0.030    28.755     8.796
   204   6 C        3.773    -0.134    23.105     6.849
   205   6 C        2.873     0.017    27.635     8.618
   206   1 H        0.924     0.076     2.025     2.225
   207   1 H        0.924     0.059     2.213     2.327
   208   1 H        0.924     0.074     2.040     2.234
   209   1 H        0.924     0.080     1.981     2.201
   210   1 H        0.925     0.091     1.865     2.135
   211   1 H        0.925     0.069     2.091     2.261
   212   1 H        0.923     0.060     2.204     2.322
   213   1 H        0.854     0.233     0.955     1.531
   214   1 H        0.924     0.082     1.954     2.186
   215   1 H        0.924     0.077     2.010     2.217
   216   1 H        0.925     0.086     1.922     2.168
   217   1 H        0.926     0.114     1.664     2.017
   218  15 P        3.720     0.726   131.836    20.626
   219   8 O        1.614    -0.385    20.590     6.124
   220   8 O        0.808    -0.583    25.742     6.801
   221   8 O        1.651    -0.338    19.696     5.991
   222   6 C        3.893     0.052    19.649     6.301
   223   6 C        3.784     0.091    19.088     6.223
   224   8 O        1.697    -0.316    19.283     5.929
   225   6 C        3.951     0.108    18.749     6.153
   226   8 O        1.653    -0.337    19.664     5.986
   227   6 C        3.824    -0.093    22.253     6.713
   228   6 C        3.733     0.173    17.913     6.041
   229   7 N        2.819    -0.055    22.301     7.014
   230   6 C        3.140     0.096    25.640     8.287
   231   7 N        1.873    -0.286    28.275     7.882
   232   6 C        3.196    -0.001    27.504     8.549
   233   6 C        2.764     0.269    22.450     7.760
   234   8 O        0.858    -0.473    23.189     6.456
   235   7 N        2.698    -0.212    25.610     7.516
   236   6 C        2.839     0.239    23.010     7.861
   237   7 N        2.640    -0.291    27.509     7.790
   238   7 N        1.833    -0.341    29.713     8.078
   239   6 C        3.103     0.138    24.865     8.171
   240   1 H        0.925     0.090     1.882     2.145
   241   1 H        0.924     0.085     1.930     2.172
   242   1 H        0.925     0.100     1.789     2.092
   243   1 H        0.924     0.070     2.086     2.259
   244   1 H        0.925     0.079     1.992     2.207
   245   1 H        0.926     0.083     1.951     2.184
   246   1 H        0.924     0.067     2.116     2.275
   247   1 H        0.925     0.062     2.176     2.307
   248   1 H        0.855     0.225     0.986     1.556
   249   1 H        0.859     0.224     0.993     1.561
   250   1 H        0.860     0.236     0.939     1.518
   251  15 P        3.770     0.754   130.883    20.551
   252   8 O        1.614    -0.387    20.620     6.129
   253   8 O        0.808    -0.586    25.802     6.809
   254   8 O        1.653    -0.361    20.119     6.055
   255   6 C        3.924     0.050    19.683     6.305
   256   6 C        3.883     0.090    19.047     6.205
   257   8 O        1.700    -0.309    19.153     5.909
   258   6 C        3.945     0.105    18.801     6.162
   259   8 O        1.652    -0.346    19.831     6.011
   260   6 C        3.884    -0.100    22.353     6.722
   261   6 C        3.758     0.168    17.957     6.041
   262   7 N        2.848    -0.073    22.657     7.070
   263   6 C        3.176     0.103    25.349     8.222
   264   7 N        1.885    -0.302    28.669     7.937
   265   6 C        3.253     0.024    26.406     8.314
   266   6 C        2.883     0.171    24.316     8.084
   267   7 N        2.641    -0.268    26.942     7.709
   268   7 N        1.842    -0.323    29.224     8.012
   269   6 C        2.963     0.151    24.720     8.155
   270   7 N        1.828    -0.319    29.122     7.997
   271   6 C        3.185     0.142    24.497     8.077
   272   1 H        0.925     0.085     1.931     2.173
   273   1 H        0.924     0.082     1.962     2.191
   274   1 H        0.925     0.106     1.731     2.058
   275   1 H        0.924     0.077     2.014     2.219
   276   1 H        0.925     0.087     1.905     2.158
   277   1 H        0.926     0.087     1.907     2.159
   278   1 H        0.924     0.075     2.033     2.230
   279   1 H        0.926     0.066     2.135     2.285
   280   1 H        0.859     0.237     0.936     1.515
   281   1 H        0.859     0.227     0.976     1.548
   282   1 H        0.925     0.034     2.527     2.486
   283  15 P        3.741     0.738   131.402    20.592
   284   8 O        1.614    -0.370    20.292     6.080
   285   8 O        0.808    -0.563    25.259     6.737
   286   8 O        1.652    -0.351    19.918     6.025
   287   6 C        3.890     0.046    19.755     6.319
   288   6 C        3.840     0.087    19.113     6.219
   289   8 O        1.699    -0.312    19.209     5.917
   290   6 C        3.942     0.103    18.825     6.166
   291   8 O        1.652    -0.346    19.826     6.011
   292   6 C        3.870    -0.096    22.278     6.712
   293   6 C        3.753     0.173    17.886     6.031
   294   7 N        2.746    -0.078    22.758     7.085
   295   6 C        2.701     0.333    21.347     7.562
   296   8 O        0.859    -0.482    23.381     6.483
   297   7 N        2.691    -0.207    25.506     7.501
   298   6 C        2.764     0.281    22.236     7.722
   299   8 O        0.859    -0.455    22.805     6.403
   300   6 C        2.959    -0.041    29.028     8.837
   301   6 C        3.763    -0.134    23.114     6.853
   302   6 C        2.873     0.013    27.718     8.630
   303   1 H        0.924     0.100     1.786     2.090
   304   1 H        0.924     0.083     1.952     2.185
   305   1 H        0.925     0.103     1.756     2.072
   306   1 H        0.924     0.085     1.929     2.172
   307   1 H        0.925     0.090     1.878     2.143
   308   1 H        0.926     0.079     1.990     2.206
   309   1 H        0.924     0.068     2.106     2.269
   310   1 H        0.851     0.234     0.948     1.526
   311   1 H        0.925     0.081     1.971     2.195
   312   1 H        0.925     0.093     1.849     2.126
   313   1 H        0.925     0.068     2.111     2.272
   314   1 H        0.925     0.111     1.690     2.033
   315  15 P        3.750     0.741   131.314    20.585
   316   8 O        1.614    -0.368    20.270     6.077
   317   8 O        0.808    -0.564    25.274     6.739
   318   8 O        1.652    -0.356    20.014     6.039
   319   6 C        3.888     0.046    19.757     6.319
   320   6 C        3.817     0.091    19.066     6.214
   321   8 O        1.698    -0.322    19.391     5.945
   322   6 C        3.901     0.107    18.774     6.159
   323   8 O        1.651    -0.350    19.904     6.023
   324   6 C        3.863    -0.086    22.103     6.686
   325   6 C        3.719     0.176    17.896     6.043
   326   7 N        2.740    -0.069    22.574     7.056
   327   6 C        2.729     0.347    21.111     7.522
   328   8 O        0.861    -0.518    24.185     6.594
   329   7 N        1.836    -0.342    29.724     8.079
   330   6 C        2.855     0.179    24.157     8.056
   331   7 N        2.635    -0.274    27.090     7.730
   332   6 C        2.904    -0.099    30.501     9.056
   333   6 C        2.875     0.042    27.059     8.527
   334   1 H        0.924     0.102     1.769     2.080
   335   1 H        0.924     0.083     1.945     2.181
   336   1 H        0.925     0.100     1.781     2.087
   337   1 H        0.924     0.079     1.989     2.205
   338   1 H        0.925     0.085     1.931     2.173
   339   1 H        0.925     0.071     2.078     2.254
   340   1 H        0.924     0.062     2.180     2.309
   341   1 H        0.859     0.235     0.945     1.523
   342   1 H        0.860     0.219     1.014     1.578
   343   1 H        0.926     0.096     1.826     2.113
   344   1 H        0.926     0.090     1.878     2.143
   345  15 P        3.745     0.736   131.478    20.598
   346   8 O        1.614    -0.367    20.234     6.071
   347   8 O        0.808    -0.567    25.359     6.750
   348   8 O        1.653    -0.359    20.078     6.049
   349   6 C        3.916     0.053    19.631     6.297
   350   6 C        3.776     0.085    19.204     6.244
   351   8 O        1.697    -0.332    19.560     5.971
   352   6 C        3.732     0.107    18.915     6.208
   353   8 O        1.653    -0.478    22.429     6.393
   354   6 C        3.827    -0.083    22.068     6.684
   355   6 C        3.696     0.166    18.091     6.084
   356   7 N        2.848    -0.069    22.567     7.056
   357   6 C        3.177     0.106    25.278     8.209
   358   7 N        1.885    -0.313    28.977     7.980
   359   6 C        3.255     0.022    26.426     8.314
   360   6 C        2.883     0.172    24.303     8.082
   361   7 N        2.641    -0.264    26.853     7.696
   362   7 N        1.842    -0.323    29.236     8.013
   363   6 C        2.963     0.149    24.770     8.163
   364   7 N        1.828    -0.319    29.114     7.996
   365   6 C        3.187     0.143    24.474     8.072
   366   1 H        0.924     0.085     1.930     2.173
   367   1 H        0.924     0.072     2.064     2.247
   368   1 H        0.925     0.090     1.883     2.146
   369   1 H        0.924     0.056     2.245     2.343
   370   1 H        0.805     0.350     0.588     1.205
   371   1 H        0.925     0.063     2.166     2.301
   372   1 H        0.925     0.092     1.862     2.134
   373   1 H        0.924     0.076     2.019     2.222
   374   1 H        0.925     0.054     2.269     2.356
   375   1 H        0.859     0.242     0.916     1.499
   376   1 H        0.860     0.222     1.002     1.568
   377   1 H        0.925     0.039     2.459     2.452
   378   1 H        0.804     0.342     0.607     1.224
   379   1 H        0.804     0.342     0.607     1.224
   380   1 H        0.806     0.354     0.578     1.194
   381   1 H        0.898     0.467     0.373     0.956
   382   1 H        0.898     0.461     0.381     0.966
   383   1 H        0.897     0.440     0.411     1.003
   384   1 H        0.897     0.437     0.416     1.010
   385   1 H        0.897     0.440     0.411     1.003
   386   1 H        0.898     0.438     0.414     1.007
   387   1 H        0.897     0.468     0.372     0.955
   388   1 H        0.897     0.465     0.376     0.959
   389   1 H        0.897     0.468     0.372     0.954
   390   1 H        0.897     0.467     0.373     0.956

 Mol. C6AA /au·bohr⁶  :    1948818.619897
 Mol. C8AA /au·bohr⁸  :   48252758.988296
 Mol. α(0) /au        :       2111.684683


Wiberg/Mayer (AO) data.
largest (>0.10) Wiberg bond orders for each atom

 ---------------------------------------------------------------------------
     #   Z sym  total        # sym  WBO       # sym  WBO       # sym  WBO
 ---------------------------------------------------------------------------
     1   8 O    1.926 --     2 C    1.006   379 H    0.860
     2   6 C    3.956 --     1 O    1.006     3 C    0.977    18 H    0.970
                            19 H    0.969
     3   6 C    3.933 --     2 C    0.977     5 C    0.968    20 H    0.958
                             4 O    0.957
     4   8 O    2.066 --     8 C    0.964     3 C    0.957
     5   6 C    3.921 --     7 C    1.001     3 C    0.968    21 H    0.962
                             6 O    0.913
     6   8 O    2.244 --    30 P    1.112     5 C    0.913
     7   6 C    3.988 --     5 C    1.001     8 C    0.988    23 H    0.963
                            22 H    0.958
     8   6 C    3.935 --     7 C    0.988     4 O    0.964     9 N    0.960
                            24 H    0.952
     9   7 N    3.575 --    17 C    1.157    10 C    1.124     8 C    0.960
                            11 O    0.130
    10   6 C    3.959 --    11 O    1.608    12 N    1.145     9 N    1.124
    11   8 O    1.951 --    10 C    1.608    12 N    0.134     9 N    0.130
    12   7 N    3.517 --    10 C    1.145    13 C    1.142    25 H    0.844
                            14 O    0.141    11 O    0.134
    13   6 C    3.942 --    14 O    1.615    12 N    1.142    15 C    1.089
    14   8 O    2.003 --    13 C    1.615    12 N    0.141
    15   6 C    3.980 --    17 C    1.658    13 C    1.089    16 C    1.016
    16   6 C    3.981 --    15 C    1.016    26 H    0.983    28 H    0.970
                            27 H    0.968
    17   6 C    3.947 --    15 C    1.658     9 N    1.157    29 H    0.946
    18   1 H    0.994 --     2 C    0.970
    19   1 H    0.997 --     2 C    0.969
    20   1 H    0.994 --     3 C    0.958
    21   1 H    0.993 --     5 C    0.962
    22   1 H    0.991 --     7 C    0.958
    23   1 H    0.994 --     7 C    0.963
    24   1 H    0.996 --     8 C    0.952
    25   1 H    0.945 --    12 N    0.844
    26   1 H    0.994 --    16 C    0.983
    27   1 H    0.991 --    16 C    0.968
    28   1 H    0.992 --    16 C    0.970
    29   1 H    0.987 --    17 C    0.946
    30  15 P    5.466 --    32 O    1.796    31 O    1.393     6 O    1.112
                            33 O    1.093
    31   8 O    2.318 --    30 P    1.393   386 H    0.764
    32   8 O    1.999 --    30 P    1.796
    33   8 O    2.224 --    30 P    1.093    34 C    0.932
    34   6 C    3.924 --    35 C    0.983    52 H    0.965    53 H    0.959
                            33 O    0.932
    35   6 C    3.947 --    34 C    0.983    37 C    0.974    36 O    0.972
                            54 H    0.946
    36   8 O    2.070 --    35 C    0.972    40 C    0.961
    37   6 C    3.928 --    39 C    0.997    35 C    0.974    55 H    0.963
                            38 O    0.922
    38   8 O    2.241 --    63 P    1.101    37 C    0.922
    39   6 C    3.988 --    37 C    0.997    40 C    0.986    56 H    0.965
                            57 H    0.955
    40   6 C    3.938 --    39 C    0.986    41 N    0.974    36 O    0.961
                            58 H    0.953
    41   7 N    3.599 --    42 C    1.190    51 C    1.171    40 C    0.974
                            43 N    0.105
    42   6 C    3.945 --    43 N    1.615    41 N    1.190    59 H    0.959
    43   7 N    3.010 --    42 C    1.615    44 C    1.191    41 N    0.105
    44   6 C    3.966 --    51 C    1.337    43 N    1.191    45 C    1.151
    45   6 C    3.952 --    46 O    1.578    44 C    1.151    47 N    1.107
    46   8 O    1.995 --    45 C    1.578    47 N    0.138
    47   7 N    3.502 --    48 C    1.183    45 C    1.107    60 H    0.844
                            46 O    0.138
    48   6 C    3.962 --    50 N    1.405    49 N    1.266    47 N    1.183
    49   7 N    3.339 --    48 C    1.266    62 H    0.928    61 H    0.899
    50   7 N    2.983 --    48 C    1.405    51 C    1.235
    51   6 C    3.957 --    44 C    1.337    50 N    1.235    41 N    1.171
    52   1 H    0.991 --    34 C    0.965
    53   1 H    0.994 --    34 C    0.959
    54   1 H    0.988 --    35 C    0.946
    55   1 H    0.994 --    37 C    0.963
    56   1 H    0.993 --    39 C    0.965
    57   1 H    0.993 --    39 C    0.955
    58   1 H    0.996 --    40 C    0.953
    59   1 H    0.995 --    42 C    0.959
    60   1 H    0.949 --    47 N    0.844
    61   1 H    0.949 --    49 N    0.899
    62   1 H    0.945 --    49 N    0.928
    63  15 P    5.427 --    65 O    1.763    64 O    1.380    66 O    1.114
                            38 O    1.101
    64   8 O    2.287 --    63 P    1.380   387 H    0.746
    65   8 O    1.966 --    63 P    1.763
    66   8 O    2.239 --    63 P    1.114    67 C    0.925
    67   6 C    3.922 --    68 C    0.994    85 H    0.965    84 H    0.964
                            66 O    0.925
    68   6 C    3.948 --    67 C    0.994    70 C    0.972    69 O    0.965
                            86 H    0.944
    69   8 O    2.080 --    73 C    0.975    68 C    0.965
    70   6 C    3.930 --    72 C    1.003    68 C    0.972    87 H    0.960
                            71 O    0.920
    71   8 O    2.238 --    95 P    1.096    70 C    0.920
    72   6 C    3.987 --    70 C    1.003    73 C    0.985    88 H    0.958
                            89 H    0.954
    73   6 C    3.935 --    72 C    0.985    69 O    0.975    74 N    0.953
                            90 H    0.953
    74   7 N    3.588 --    75 C    1.207    83 C    1.156    73 C    0.953
                            76 N    0.110
    75   6 C    3.956 --    76 N    1.603    74 N    1.207    91 H    0.950
    76   7 N    3.010 --    75 C    1.603    77 C    1.192    74 N    0.110
    77   6 C    3.974 --    83 C    1.331    78 C    1.193    76 N    1.192
    78   6 C    3.971 --    79 N    1.329    80 N    1.307    77 C    1.193
    79   7 N    3.420 --    78 C    1.329    93 H    0.928    92 H    0.882
    80   7 N    3.096 --    81 C    1.389    78 C    1.307
    81   6 C    3.970 --    82 N    1.477    80 N    1.389    94 H    0.957
    82   7 N    3.013 --    81 C    1.477    83 C    1.257
    83   6 C    3.960 --    77 C    1.331    82 N    1.257    74 N    1.156
    84   1 H    0.992 --    67 C    0.964
    85   1 H    0.993 --    67 C    0.965
    86   1 H    0.988 --    68 C    0.944
    87   1 H    0.993 --    70 C    0.960
    88   1 H    0.992 --    72 C    0.958
    89   1 H    0.992 --    72 C    0.954
    90   1 H    0.995 --    73 C    0.953
    91   1 H    0.995 --    75 C    0.950
    92   1 H    0.944 --    79 N    0.882
    93   1 H    0.947 --    79 N    0.928
    94   1 H    0.998 --    81 C    0.957
    95  15 P    5.432 --    97 O    1.761    96 O    1.378    98 O    1.132
                            71 O    1.096
    96   8 O    2.285 --    95 P    1.378   388 H    0.748
    97   8 O    1.966 --    95 P    1.761
    98   8 O    2.253 --    95 P    1.132    99 C    0.927
    99   6 C    3.919 --   100 C    0.991   116 H    0.966   115 H    0.964
                            98 O    0.927
   100   6 C    3.943 --    99 C    0.991   102 C    0.972   101 O    0.960
                           117 H    0.947
   101   8 O    2.069 --   105 C    0.974   100 C    0.960
   102   6 C    3.927 --   104 C    1.001   100 C    0.972   118 H    0.959
                           103 O    0.920
   103   8 O    2.238 --   127 P    1.098   102 C    0.920
   104   6 C    3.988 --   102 C    1.001   105 C    0.989   119 H    0.960
                           120 H    0.959
   105   6 C    3.935 --   104 C    0.989   101 O    0.974   121 H    0.952
                           106 N    0.950
   106   7 N    3.555 --   114 C    1.151   107 C    1.119   105 C    0.950
                           108 O    0.130
   107   6 C    3.959 --   108 O    1.617   109 N    1.142   106 N    1.119
   108   8 O    1.962 --   107 C    1.617   109 N    0.134   106 N    0.130
   109   7 N    3.515 --   110 C    1.143   107 C    1.142   122 H    0.837
                           111 O    0.143   108 O    0.134
   110   6 C    3.943 --   111 O    1.623   109 N    1.143   112 C    1.083
   111   8 O    2.010 --   110 C    1.623   109 N    0.143
   112   6 C    3.982 --   114 C    1.657   110 C    1.083   113 C    1.027
   113   6 C    3.982 --   112 C    1.027   124 H    0.977   125 H    0.962
                           123 H    0.960
   114   6 C    3.949 --   112 C    1.657   106 N    1.151   126 H    0.941
   115   1 H    0.991 --    99 C    0.964
   116   1 H    0.991 --    99 C    0.966
   117   1 H    0.989 --   100 C    0.947
   118   1 H    0.992 --   102 C    0.959
   119   1 H    0.991 --   104 C    0.960
   120   1 H    0.994 --   104 C    0.959
   121   1 H    0.995 --   105 C    0.952
   122   1 H    0.944 --   109 N    0.837
   123   1 H    0.994 --   113 C    0.960
   124   1 H    0.993 --   113 C    0.977
   125   1 H    0.990 --   113 C    0.962
   126   1 H    0.988 --   114 C    0.941
   127  15 P    5.428 --   129 O    1.759   128 O    1.378   130 O    1.127
                           103 O    1.098
   128   8 O    2.285 --   127 P    1.378   389 H    0.746
   129   8 O    1.966 --   127 P    1.759
   130   8 O    2.246 --   127 P    1.127   131 C    0.927
   131   6 C    3.917 --   132 C    0.988   146 H    0.966   147 H    0.966
                           130 O    0.927
   132   6 C    3.945 --   131 C    0.988   134 C    0.972   133 O    0.963
                           148 H    0.950
   133   8 O    2.061 --   137 C    0.966   132 C    0.963
   134   6 C    3.927 --   136 C    1.003   132 C    0.972   149 H    0.961
                           135 O    0.919
   135   8 O    2.232 --   157 P    1.093   134 C    0.919
   136   6 C    3.988 --   134 C    1.003   137 C    0.983   151 H    0.962
                           150 H    0.958
   137   6 C    3.936 --   136 C    0.983   133 O    0.966   138 N    0.959
                           152 H    0.956
   138   7 N    3.595 --   145 C    1.230   139 C    1.067   137 C    0.959
                           140 O    0.113
   139   6 C    3.950 --   140 O    1.563   141 N    1.230   138 N    1.067
   140   8 O    1.939 --   139 C    1.563   141 N    0.119   138 N    0.113
   141   7 N    3.087 --   142 C    1.375   139 C    1.230   140 O    0.119
                           143 N    0.111
   142   6 C    3.965 --   141 N    1.375   143 N    1.310   144 C    1.181
   143   7 N    3.397 --   142 C    1.310   154 H    0.933   153 H    0.866
                           141 N    0.111
   144   6 C    3.974 --   145 C    1.622   142 C    1.181   155 H    0.960
   145   6 C    3.958 --   144 C    1.622   138 N    1.230   156 H    0.945
   146   1 H    0.991 --   131 C    0.966
   147   1 H    0.991 --   131 C    0.966
   148   1 H    0.990 --   132 C    0.950
   149   1 H    0.993 --   134 C    0.961
   150   1 H    0.993 --   136 C    0.958
   151   1 H    0.995 --   136 C    0.962
   152   1 H    0.996 --   137 C    0.956
   153   1 H    0.941 --   143 N    0.866
   154   1 H    0.949 --   143 N    0.933
   155   1 H    0.990 --   144 C    0.960
   156   1 H    0.991 --   145 C    0.945
   157  15 P    5.432 --   159 O    1.761   158 O    1.379   160 O    1.128
                           135 O    1.093
   158   8 O    2.287 --   157 P    1.379   390 H    0.746
   159   8 O    1.965 --   157 P    1.761
   160   8 O    2.245 --   157 P    1.128   161 C    0.923
   161   6 C    3.918 --   162 C    0.986   179 H    0.968   178 H    0.967
                           160 O    0.923
   162   6 C    3.943 --   161 C    0.986   164 C    0.975   163 O    0.961
                           180 H    0.949
   163   8 O    2.065 --   167 C    0.971   162 C    0.961
   164   6 C    3.964 --   166 C    0.993   165 O    0.992   162 C    0.975
                           181 H    0.959
   165   8 O    1.921 --   164 C    0.992   380 H    0.858
   166   6 C    3.988 --   164 C    0.993   167 C    0.980   182 H    0.971
                           183 H    0.969
   167   6 C    3.931 --   166 C    0.980   163 O    0.971   168 N    0.957
                           184 H    0.956
   168   7 N    3.599 --   169 C    1.217   177 C    1.155   167 C    0.957
                           170 N    0.111
   169   6 C    3.958 --   170 N    1.597   168 N    1.217   185 H    0.955
   170   7 N    3.003 --   169 C    1.597   171 C    1.190   168 N    0.111
   171   6 C    3.972 --   177 C    1.329   172 C    1.194   170 N    1.190
   172   6 C    3.972 --   173 N    1.331   174 N    1.306   171 C    1.194
   173   7 N    3.420 --   172 C    1.331   187 H    0.931   186 H    0.875
   174   7 N    3.088 --   175 C    1.393   172 C    1.306
   175   6 C    3.969 --   176 N    1.474   174 N    1.393   188 H    0.957
   176   7 N    3.013 --   175 C    1.474   177 C    1.259
   177   6 C    3.959 --   171 C    1.329   176 N    1.259   168 N    1.155
   178   1 H    0.994 --   161 C    0.967
   179   1 H    0.993 --   161 C    0.968
   180   1 H    0.990 --   162 C    0.949
   181   1 H    0.997 --   164 C    0.959
   182   1 H    0.996 --   166 C    0.971
   183   1 H    0.993 --   166 C    0.969
   184   1 H    0.994 --   167 C    0.956
   185   1 H    0.996 --   169 C    0.955
   186   1 H    0.941 --   173 N    0.875
   187   1 H    0.950 --   173 N    0.931
   188   1 H    0.998 --   175 C    0.957
   189   8 O    1.925 --   190 C    1.007   378 H    0.859
   190   6 C    3.956 --   189 O    1.007   191 C    0.976   206 H    0.970
                           207 H    0.969
   191   6 C    3.932 --   190 C    0.976   193 C    0.968   208 H    0.958
                           192 O    0.957
   192   8 O    2.066 --   196 C    0.963   191 C    0.957
   193   6 C    3.921 --   195 C    1.002   191 C    0.968   209 H    0.962
                           194 O    0.913
   194   8 O    2.240 --   218 P    1.107   193 C    0.913
   195   6 C    3.988 --   193 C    1.002   196 C    0.988   211 H    0.964
                           210 H    0.958
   196   6 C    3.936 --   195 C    0.988   192 O    0.963   197 N    0.960
                           212 H    0.953
   197   7 N    3.575 --   205 C    1.156   198 C    1.125   196 C    0.960
                           199 O    0.130
   198   6 C    3.959 --   199 O    1.608   200 N    1.145   197 N    1.125
   199   8 O    1.951 --   198 C    1.608   200 N    0.133   197 N    0.130
   200   7 N    3.517 --   198 C    1.145   201 C    1.141   213 H    0.845
                           202 O    0.141   199 O    0.133
   201   6 C    3.942 --   202 O    1.615   200 N    1.141   203 C    1.090
   202   8 O    2.005 --   201 C    1.615   200 N    0.141
   203   6 C    3.980 --   205 C    1.658   201 C    1.090   204 C    1.016
   204   6 C    3.981 --   203 C    1.016   215 H    0.982   214 H    0.970
                           216 H    0.967
   205   6 C    3.946 --   203 C    1.658   197 N    1.156   217 H    0.946
   206   1 H    0.994 --   190 C    0.970
   207   1 H    0.997 --   190 C    0.969
   208   1 H    0.994 --   191 C    0.958
   209   1 H    0.993 --   193 C    0.962
   210   1 H    0.991 --   195 C    0.958
   211   1 H    0.995 --   195 C    0.964
   212   1 H    0.996 --   196 C    0.953
   213   1 H    0.945 --   200 N    0.845
   214   1 H    0.992 --   204 C    0.970
   215   1 H    0.994 --   204 C    0.982
   216   1 H    0.991 --   204 C    0.967
   217   1 H    0.987 --   205 C    0.946
   218  15 P    5.447 --   220 O    1.764   219 O    1.380   221 O    1.124
                           194 O    1.107
   219   8 O    2.288 --   218 P    1.380   381 H    0.746
   220   8 O    1.971 --   218 P    1.764
   221   8 O    2.243 --   218 P    1.124   222 C    0.929
   222   6 C    3.921 --   223 C    0.984   240 H    0.967   241 H    0.967
                           221 O    0.929
   223   6 C    3.947 --   222 C    0.984   225 C    0.974   224 O    0.971
                           242 H    0.947
   224   8 O    2.069 --   223 C    0.971   228 C    0.962
   225   6 C    3.925 --   227 C    0.996   223 C    0.974   243 H    0.963
                           226 O    0.918
   226   8 O    2.248 --   251 P    1.118   225 C    0.918
   227   6 C    3.988 --   225 C    0.996   228 C    0.985   244 H    0.965
                           245 H    0.953
   228   6 C    3.939 --   227 C    0.985   229 N    0.973   224 O    0.962
                           246 H    0.953
   229   7 N    3.602 --   230 C    1.191   239 C    1.172   228 C    0.973
                           231 N    0.105
   230   6 C    3.946 --   231 N    1.614   229 N    1.191   247 H    0.958
   231   7 N    3.010 --   230 C    1.614   232 C    1.191   229 N    0.105
   232   6 C    3.966 --   239 C    1.335   231 N    1.191   233 C    1.152
   233   6 C    3.952 --   234 O    1.576   232 C    1.152   235 N    1.107
   234   8 O    1.998 --   233 C    1.576   235 N    0.138
   235   7 N    3.503 --   236 C    1.183   233 C    1.107   248 H    0.845
                           234 O    0.138
   236   6 C    3.963 --   238 N    1.408   237 N    1.261   235 N    1.183
   237   7 N    3.327 --   236 C    1.261   250 H    0.925   249 H    0.899
   238   7 N    2.984 --   236 C    1.408   239 C    1.235
   239   6 C    3.956 --   232 C    1.335   238 N    1.235   229 N    1.172
   240   1 H    0.991 --   222 C    0.967
   241   1 H    0.992 --   222 C    0.967
   242   1 H    0.989 --   223 C    0.947
   243   1 H    0.995 --   225 C    0.963
   244   1 H    0.994 --   227 C    0.965
   245   1 H    0.993 --   227 C    0.953
   246   1 H    0.995 --   228 C    0.953
   247   1 H    0.995 --   230 C    0.958
   248   1 H    0.949 --   235 N    0.845
   249   1 H    0.949 --   237 N    0.899
   250   1 H    0.943 --   237 N    0.925
   251  15 P    5.406 --   253 O    1.763   252 O    1.360   226 O    1.118
                           254 O    1.084
   252   8 O    2.272 --   251 P    1.360   382 H    0.749
   253   8 O    1.972 --   251 P    1.763
   254   8 O    2.220 --   251 P    1.084   255 C    0.927
   255   6 C    3.923 --   256 C    0.992   272 H    0.964   273 H    0.963
                           254 O    0.927
   256   6 C    3.948 --   255 C    0.992   258 C    0.972   257 O    0.967
                           274 H    0.944
   257   8 O    2.081 --   261 C    0.975   256 C    0.967
   258   6 C    3.930 --   260 C    1.003   256 C    0.972   275 H    0.958
                           259 O    0.919
   259   8 O    2.241 --   283 P    1.100   258 C    0.919
   260   6 C    3.987 --   258 C    1.003   261 C    0.986   276 H    0.957
                           277 H    0.954
   261   6 C    3.935 --   260 C    0.986   257 O    0.975   278 H    0.953
                           262 N    0.951
   262   7 N    3.590 --   263 C    1.210   271 C    1.156   261 C    0.951
                           264 N    0.110
   263   6 C    3.956 --   264 N    1.602   262 N    1.210   279 H    0.948
   264   7 N    3.008 --   263 C    1.602   265 C    1.192   262 N    0.110
   265   6 C    3.974 --   271 C    1.329   266 C    1.194   264 N    1.192
   266   6 C    3.972 --   267 N    1.326   268 N    1.309   265 C    1.194
   267   7 N    3.415 --   266 C    1.326   281 H    0.930   280 H    0.880
   268   7 N    3.094 --   269 C    1.388   266 C    1.309
   269   6 C    3.970 --   270 N    1.479   268 N    1.388   282 H    0.957
   270   7 N    3.016 --   269 C    1.479   271 C    1.259
   271   6 C    3.960 --   265 C    1.329   270 N    1.259   262 N    1.156
   272   1 H    0.992 --   255 C    0.964
   273   1 H    0.993 --   255 C    0.963
   274   1 H    0.987 --   256 C    0.944
   275   1 H    0.994 --   258 C    0.958
   276   1 H    0.992 --   260 C    0.957
   277   1 H    0.992 --   260 C    0.954
   278   1 H    0.994 --   261 C    0.953
   279   1 H    0.995 --   263 C    0.948
   280   1 H    0.943 --   267 N    0.880
   281   1 H    0.948 --   267 N    0.930
   282   1 H    0.998 --   269 C    0.957
   283  15 P    5.444 --   285 O    1.795   284 O    1.385   259 O    1.100
                           286 O    1.098
   284   8 O    2.309 --   283 P    1.385   383 H    0.765
   285   8 O    1.996 --   283 P    1.795
   286   8 O    2.231 --   283 P    1.098   287 C    0.929
   287   6 C    3.922 --   288 C    0.991   303 H    0.962   304 H    0.961
                           286 O    0.929
   288   6 C    3.944 --   287 C    0.991   290 C    0.972   289 O    0.961
                           305 H    0.946
   289   8 O    2.071 --   293 C    0.975   288 C    0.961
   290   6 C    3.927 --   292 C    1.001   288 C    0.972   306 H    0.957
                           291 O    0.920
   291   8 O    2.241 --   315 P    1.102   290 C    0.920
   292   6 C    3.987 --   290 C    1.001   293 C    0.989   307 H    0.960
                           308 H    0.958
   293   6 C    3.935 --   292 C    0.989   289 O    0.975   309 H    0.952
                           294 N    0.950
   294   7 N    3.559 --   302 C    1.153   295 C    1.120   293 C    0.950
                           296 O    0.130
   295   6 C    3.959 --   296 O    1.616   297 N    1.142   294 N    1.120
   296   8 O    1.960 --   295 C    1.616   297 N    0.134   294 N    0.130
   297   7 N    3.514 --   298 C    1.143   295 C    1.142   310 H    0.835
                           299 O    0.144   296 O    0.134
   298   6 C    3.943 --   299 O    1.623   297 N    1.143   300 C    1.082
   299   8 O    2.009 --   298 C    1.623   297 N    0.144
   300   6 C    3.982 --   302 C    1.656   298 C    1.082   301 C    1.027
   301   6 C    3.982 --   300 C    1.027   311 H    0.977   312 H    0.962
                           313 H    0.961
   302   6 C    3.950 --   300 C    1.656   294 N    1.153   314 H    0.940
   303   1 H    0.990 --   287 C    0.962
   304   1 H    0.993 --   287 C    0.961
   305   1 H    0.988 --   288 C    0.946
   306   1 H    0.992 --   290 C    0.957
   307   1 H    0.991 --   292 C    0.960
   308   1 H    0.994 --   292 C    0.958
   309   1 H    0.995 --   293 C    0.952
   310   1 H    0.944 --   297 N    0.835
   311   1 H    0.993 --   301 C    0.977
   312   1 H    0.990 --   301 C    0.962
   313   1 H    0.994 --   301 C    0.961
   314   1 H    0.988 --   302 C    0.940
   315  15 P    5.443 --   317 O    1.793   316 O    1.386   291 O    1.102
                           318 O    1.097
   316   8 O    2.311 --   315 P    1.386   384 H    0.763
   317   8 O    1.996 --   315 P    1.793
   318   8 O    2.228 --   315 P    1.097   319 C    0.930
   319   6 C    3.920 --   320 C    0.986   334 H    0.964   335 H    0.958
                           318 O    0.930
   320   6 C    3.945 --   319 C    0.986   322 C    0.972   321 O    0.965
                           336 H    0.948
   321   8 O    2.066 --   325 C    0.968   320 C    0.965
   322   6 C    3.928 --   324 C    1.003   320 C    0.972   337 H    0.960
                           323 O    0.920
   323   8 O    2.234 --   345 P    1.095   322 C    0.920
   324   6 C    3.987 --   322 C    1.003   325 C    0.983   339 H    0.961
                           338 H    0.957
   325   6 C    3.936 --   324 C    0.983   321 O    0.968   326 N    0.957
                           340 H    0.956
   326   7 N    3.597 --   333 C    1.231   327 C    1.069   325 C    0.957
                           328 O    0.114
   327   6 C    3.951 --   328 O    1.562   329 N    1.228   326 N    1.069
   328   8 O    1.938 --   327 C    1.562   329 N    0.118   326 N    0.114
   329   7 N    3.091 --   330 C    1.379   327 C    1.228   328 O    0.118
                           331 N    0.108
   330   6 C    3.965 --   329 N    1.379   331 N    1.301   332 C    1.183
   331   7 N    3.388 --   330 C    1.301   342 H    0.934   341 H    0.873
                           329 N    0.108
   332   6 C    3.975 --   333 C    1.621   330 C    1.183   343 H    0.960
   333   6 C    3.958 --   332 C    1.621   326 N    1.231   344 H    0.944
   334   1 H    0.989 --   319 C    0.964
   335   1 H    0.993 --   319 C    0.958
   336   1 H    0.989 --   320 C    0.948
   337   1 H    0.993 --   322 C    0.960
   338   1 H    0.992 --   324 C    0.957
   339   1 H    0.995 --   324 C    0.961
   340   1 H    0.996 --   325 C    0.956
   341   1 H    0.944 --   331 N    0.873
   342   1 H    0.951 --   331 N    0.934
   343   1 H    0.990 --   332 C    0.960
   344   1 H    0.991 --   333 C    0.944
   345  15 P    5.447 --   347 O    1.796   346 O    1.389   348 O    1.097
                           323 O    1.095
   346   8 O    2.314 --   345 P    1.389   385 H    0.760
   347   8 O    1.995 --   345 P    1.796
   348   8 O    2.226 --   345 P    1.097   349 C    0.926
   349   6 C    3.919 --   350 C    0.984   366 H    0.965   367 H    0.958
                           348 O    0.926
   350   6 C    3.943 --   349 C    0.984   352 C    0.969   351 O    0.963
                           368 H    0.948
   351   8 O    2.069 --   355 C    0.972   350 C    0.963
   352   6 C    3.963 --   354 C    0.997   353 O    0.994   350 C    0.969
                           369 H    0.958
   353   8 O    1.928 --   352 C    0.994   370 H    0.861
   354   6 C    3.987 --   352 C    0.997   355 C    0.980   371 H    0.971
                           372 H    0.969
   355   6 C    3.930 --   354 C    0.980   351 O    0.972   373 H    0.957
                           356 N    0.954
   356   7 N    3.596 --   357 C    1.217   365 C    1.155   355 C    0.954
                           358 N    0.111
   357   6 C    3.958 --   358 N    1.597   356 N    1.217   374 H    0.954
   358   7 N    3.002 --   357 C    1.597   359 C    1.189   356 N    0.111
   359   6 C    3.972 --   365 C    1.329   360 C    1.195   358 N    1.189
   360   6 C    3.972 --   361 N    1.326   362 N    1.309   359 C    1.195
   361   7 N    3.416 --   360 C    1.326   376 H    0.933   375 H    0.877
   362   7 N    3.090 --   363 C    1.391   360 C    1.309
   363   6 C    3.969 --   364 N    1.476   362 N    1.391   377 H    0.957
   364   7 N    3.015 --   363 C    1.476   365 C    1.261
   365   6 C    3.959 --   359 C    1.329   364 N    1.261   356 N    1.155
   366   1 H    0.993 --   349 C    0.965
   367   1 H    0.995 --   349 C    0.958
   368   1 H    0.991 --   350 C    0.948
   369   1 H    0.996 --   352 C    0.958
   370   1 H    0.877 --   353 O    0.861
   371   1 H    0.996 --   354 C    0.971
   372   1 H    0.992 --   354 C    0.969
   373   1 H    0.994 --   355 C    0.957
   374   1 H    0.996 --   357 C    0.954
   375   1 H    0.941 --   361 N    0.877
   376   1 H    0.951 --   361 N    0.933
   377   1 H    0.998 --   363 C    0.957
   378   1 H    0.883 --   189 O    0.859
   379   1 H    0.883 --     1 O    0.860
   380   1 H    0.874 --   165 O    0.858
   381   1 H    0.782 --   219 O    0.746
   382   1 H    0.787 --   252 O    0.749
   383   1 H    0.806 --   284 O    0.765
   384   1 H    0.809 --   316 O    0.763
   385   1 H    0.806 --   346 O    0.760
   386   1 H    0.808 --    31 O    0.764
   387   1 H    0.781 --    64 O    0.746
   388   1 H    0.783 --    96 O    0.748
   389   1 H    0.781 --   128 O    0.746
   390   1 H    0.782 --   158 O    0.746
 ---------------------------------------------------------------------------

Topologies differ in total number of bonds
Writing topology from bond orders to xtbtopo.mol

molecular dipole:
                 x           y           z       tot (Debye)
 q only:        4.382      10.524       0.910
   full:        4.665      13.812       1.360      37.215
molecular quadrupole (traceless):
                xx          xy          yy          xz          yz          zz
 q only:      166.277      48.981     168.208    -142.479     251.509    -334.485
  q+dip:      179.539      55.432     195.450    -178.462     335.079    -374.989
   full:      166.162      55.821     183.809    -178.574     335.000    -349.970


           -------------------------------------------------
          | TOTAL ENERGY             -762.046989461487 Eh   |
          | GRADIENT NORM               0.509815378158 Eh/α |
          | HOMO-LUMO GAP               2.574662949447 eV   |
           -------------------------------------------------

------------------------------------------------------------------------
 * finished run on 2023/03/09 at 13:52:09.339     
------------------------------------------------------------------------
 total:
 * wall-time:     0 d,  0 h,  0 min,  2.652 sec
 *  cpu-time:     0 d,  0 h,  0 min, 25.583 sec
 * ratio c/w:     9.647 speedup
 SCF:
 * wall-time:     0 d,  0 h,  0 min,  2.330 sec
 *  cpu-time:     0 d,  0 h,  0 min, 22.790 sec
 * ratio c/w:     9.780 speedup

