      -----------------------------------------------------------      
     |                   =====================                   |     
     |                           x T B                           |     
     |                   =====================                   |     
     |                         S. Grimme                         |     
     |          Mulliken Center for Theoretical Chemistry        |     
     |                    University of Bonn                     |     
      -----------------------------------------------------------      

   * xtb version 6.5.1 (579679a) compiled by 'ehlert@majestix' on 2022-07-11

   xtb is free software: you can redistribute it and/or modify it under
   the terms of the GNU Lesser General Public License as published by
   the Free Software Foundation, either version 3 of the License, or
   (at your option) any later version.
   
   xtb is distributed in the hope that it will be useful,
   but WITHOUT ANY WARRANTY; without even the implied warranty of
   MERCHANTABILITY or FITNESS FOR A PARTICULAR PURPOSE.  See the
   GNU Lesser General Public License for more details.
   
   Cite this work as:
   * C. Bannwarth, E. Caldeweyher, S. Ehlert, A. Hansen, P. Pracht,
     J. Seibert, S. Spicher, S. Grimme, WIREs Comput. Mol. Sci., 2020, 11,
     e01493. DOI: 10.1002/wcms.1493
   
   for GFN2-xTB:
   * C. Bannwarth, S. Ehlert and S. Grimme., J. Chem. Theory Comput., 2019,
     15, 1652-1671. DOI: 10.1021/acs.jctc.8b01176
   for GFN1-xTB:
   * S. Grimme, C. Bannwarth, P. Shushkov, J. Chem. Theory Comput., 2017,
     13, 1989-2009. DOI: 10.1021/acs.jctc.7b00118
   for GFN0-xTB:
   * P. Pracht, E. Caldeweyher, S. Ehlert, S. Grimme, ChemRxiv, 2019, preprint.
     DOI: 10.26434/chemrxiv.8326202.v1
   for GFN-FF:
   * S. Spicher and S. Grimme, Angew. Chem. Int. Ed., 2020, 59, 15665-15673.
     DOI: 10.1002/anie.202004239
   
   for ALPB and GBSA implicit solvation:
   * S. Ehlert, M. Stahn, S. Spicher, S. Grimme, J. Chem. Theory Comput.,
     2021, 17, 4250-4261. DOI: 10.1021/acs.jctc.1c00471
   
   for DFT-D4:
   * E. Caldeweyher, C. Bannwarth and S. Grimme, J. Chem. Phys., 2017,
     147, 034112. DOI: 10.1063/1.4993215
   * E. Caldeweyher, S. Ehlert, A. Hansen, H. Neugebauer, S. Spicher,
     C. Bannwarth and S. Grimme, J. Chem. Phys., 2019, 150, 154122.
     DOI: 10.1063/1.5090222
   * E. Caldeweyher, J.-M. Mewes, S. Ehlert and S. Grimme, Phys. Chem. Chem. Phys.
     2020, 22, 8499-8512. DOI: 10.1039/D0CP00502A
   
   for sTDA-xTB:
   * S. Grimme and C. Bannwarth, J. Chem. Phys., 2016, 145, 054103.
     DOI: 10.1063/1.4959605
   
   in the mass-spec context:
   * V. Asgeirsson, C. Bauer and S. Grimme, Chem. Sci., 2017, 8, 4879.
     DOI: 10.1039/c7sc00601b
   * J. Koopman and S. Grimme, ACS Omega 2019, 4, 12, 15120-15133.
     DOI: 10.1021/acsomega.9b02011
   
   for metadynamics refer to:
   * S. Grimme, J. Chem. Theory Comput., 2019, 155, 2847-2862
     DOI: 10.1021/acs.jctc.9b00143
   
   for SPH calculations refer to:
   * S. Spicher and S. Grimme, J. Chem. Theory Comput., 2021, 17, 1701-1714
     DOI: 10.1021/acs.jctc.0c01306
   
   with help from (in alphabetical order)
   P. Atkinson, C. Bannwarth, F. Bohle, G. Brandenburg, E. Caldeweyher
   M. Checinski, S. Dohm, S. Ehlert, S. Ehrlich, I. Gerasimov, C. Hölzer
   A. Katbashev, J. Koopman, C. Lavigne, S. Lehtola, F. März, M. Müller,
   F. Musil, H. Neugebauer, J. Pisarek, C. Plett, P. Pracht, F. Pultar,
   J. Seibert, P. Shushkov, S. Spicher, M. Stahn, M. Steiner, T. Strunk,
   J. Stückrath, T. Rose, and J. Unsleber
   
 * started run on 2023/03/09 at 13:52:14.724     

           -------------------------------------------------
          |                Calculation Setup                |
           -------------------------------------------------

          program call               : /N/u/schandy/BigRed3/bin/xtb-6.5.1/bin/xtb 2lar.xyz --gbsa water
          hostname                   : nid00006
          coordinate file            : 2lar.xyz
          omp threads                :                    10

   ID    Z sym.   atoms
    1    8 O      1, 4, 6, 32-34, 37, 39, 44, 47, 64-66, 69, 71, 79, 97-99,
                  102, 104, 112, 130-132, 135, 137, 142, 145, 169, 177, 179,
                  181, 182, 198-200, 203, 205, 210, 228-230, 233, 235, 240,
                  243, 260-262, 265, 267, 272, 290, 293, 295, 297, 304,
                  323-325, 328, 330, 332, 356-358, 361, 363, 365, 372,
                  390-392, 395, 397, 399, 403, 421-423, 426, 428, 430,
                  454-456, 459, 461, 463, 467, 485-487, 490, 492, 494, 498,
                  516-518, 521, 523, 525, 549-551, 554, 556, 558, 562, 565
    2    6 C      2, 3, 5, 7, 8, 10, 12, 13, 16, 18, 35, 36, 38, 40, 41, 43,
                  46, 48-50, 67, 68, 70, 72, 73, 75, 77, 78, 81, 84, 100,
                  101, 103, 105, 106, 108, 110, 111, 114, 117, 133, 134, 136,
                  138, 139, 141, 144, 146-148, 163, 166-168, 171, 174-176,
                  178, 180, 201, 202, 204, 206, 207, 209, 212, 214, 215, 231,
                  232, 234, 236, 237, 239, 242, 244-246, 263, 264, 266, 268,
                  269, 271, 274, 276, 277, 291, 292, 294, 296, 298, 300, 302,
                  303, 306, 309, 326, 327, 329, 331, 333, 335, 337, 338, 341,
                  343, 359, 360, 362, 364, 366, 368, 370, 371, 374, 377, 393,
                  394, 396, 398, 400, 402, 405, 407, 408, 424, 425, 427, 429,
                  431, 433, 435, 436, 439, 441, 457, 458, 460, 462, 464, 466,
                  469, 471, 472, 488, 489, 491, 493, 495, 497, 500, 502, 503,
                  519, 520, 522, 524, 526, 528, 530, 531, 534, 536, 552, 553,
                  555, 557, 559, 561, 564, 566, 567
    3    7 N      9, 11, 14, 15, 17, 42, 45, 74, 76, 80, 82, 83, 107, 109,
                  113, 115, 116, 140, 143, 162, 164, 165, 170, 172, 208, 211,
                  213, 238, 241, 270, 273, 275, 299, 301, 305, 307, 308, 334,
                  336, 339, 340, 342, 367, 369, 373, 375, 376, 401, 404, 406,
                  432, 434, 437, 438, 440, 465, 468, 470, 496, 499, 501, 527,
                  529, 532, 533, 535, 560, 563
    4    1 H      19-30, 51-62, 85-95, 118-128, 149-160, 183-196, 216-226,
                  247-258, 278-289, 310-321, 344-354, 378-388, 409-419,
                  442-452, 473-483, 504-514, 537-547, 568-594
    5   15 P      31, 63, 96, 129, 161, 197, 227, 259, 322, 355, 389, 420,
                  453, 484, 515, 548
    6    5 B      173

molecular fragmentation (1/2 indicates fragments):
111111111111111111111111111111111111111111111111111111111111111111111111
111111111111111111111111111111111111111111111111111111111111111111111111
111111111111111111111111111111111111111111111111111111111111111111111111
111111111111111111111111111111111111111111111111111111111111111111111111
122222222222222222222222222222222222222222222222222222222222222222222222
222222222222222222222222222222222222222222222222222222222222222222222222
222222222222222222222222222222222222222222222222222222222222222222222222
222222222222222222222222222222222222222222222222222222222222222222222222
222222222211111111
# atoms in fragment 1/2:   297   297
 fragment masses (1/2) :     2727.64     2837.78
CMA distance (Bohr)    :   8.026
constraining FC (au)   :  0.0500

           -------------------------------------------------
          |                 G F N 2 - x T B                 |
           -------------------------------------------------

        Reference                      10.1021/acs.jctc.8b01176
      * Hamiltonian:
        H0-scaling (s, p, d)           1.850000    2.230000    2.230000
        zeta-weighting                 0.500000
      * Dispersion:
        s8                             2.700000
        a1                             0.520000
        a2                             5.000000
        s9                             5.000000
      * Repulsion:
        kExp                           1.500000    1.000000
        rExp                           1.000000
      * Coulomb:
        alpha                          2.000000
        third order                    shell-resolved
        anisotropic                    true
        a3                             3.000000
        a5                             4.000000
        cn-shift                       1.200000
        cn-exp                         4.000000
        max-rad                        5.000000

      * Solvation model:               GBSA
        Solvent                        water
        Parameter file                 internal GFN2-xTB/GBSA
        Dielectric constant                8.0200E+01
        Reference state                gsolv [1 M gas/solution]
        Free energy shift                  1.8574E-03 Eh       1.1656E+00 kcal/mol
        Temperature                        2.9815E+02 K
        Density                            1.0000E+00 kg/L
        Solvent mass                       1.8000E+01 g/mol
        Interaction kernel             Still
        Born radius scaling (c1)           1.5524E+00
        Born radii integrator          GBOBC
        Born offset                        2.4628E-02 a0       4.6540E-02 AA
        H-bond correction              true
        Ion screening                  false
        Surface tension                    1.0000E-05 Eh       1.5569E+01 dyn/cm
        Grid points                               230 per atom
q/qsh data taken from xtbrestart
CAMM data taken from xtbrestart

          ...................................................
          :                      SETUP                      :
          :.................................................:
          :  # basis functions                1803          :
          :  # atomic orbitals                1787          :
          :  # shells                          981          :
          :  # electrons                      2014          :
          :  max. iterations                   250          :
          :  Hamiltonian                  GFN2-xTB          :
          :  restarted?                       true          :
          :  GBSA solvation                   true          :
          :  PC potential                    false          :
          :  electronic temp.          300.0000000     K    :
          :  accuracy                    1.0000000          :
          :  -> integral cutoff          0.2500000E+02      :
          :  -> integral neglect         0.1000000E-07      :
          :  -> SCF convergence          0.1000000E-05 Eh   :
          :  -> wf. convergence          0.1000000E-03 e    :
          :  Broyden damping             0.4000000          :
          ...................................................

 iter      E             dE          RMSdq      gap      omega  full diag
   1  -1197.5229589 -0.119752E+04  0.220E-01    2.14       0.0  T
   2  -1197.5330855 -0.101266E-01  0.835E-02    2.28       1.0  T
   3  -1197.5340747 -0.989239E-03  0.483E-02    2.23       1.0  T
   4  -1197.5343965 -0.321730E-03  0.262E-02    2.25       1.0  T
   5  -1197.5345570 -0.160570E-03  0.963E-03    2.25       1.0  T
   6  -1197.5345712 -0.141895E-04  0.493E-03    2.24       1.0  T
   7  -1197.5345749 -0.364298E-05  0.255E-03    2.24       1.6  T
   8  -1197.5345759 -0.108245E-05  0.133E-03    2.24       3.1  T
   9  -1197.5345761 -0.200852E-06  0.623E-04    2.24       6.6  T
  10  -1197.5345762 -0.696134E-07  0.265E-04    2.24      15.5  T

   *** convergence criteria satisfied after 10 iterations ***

         #    Occupation            Energy/Eh            Energy/eV
      -------------------------------------------------------------
         1        2.0000           -0.7861506             -21.3922
       ...           ...                  ...                  ...
      1001        2.0000           -0.3882375             -10.5645
      1002        2.0000           -0.3873504             -10.5403
      1003        2.0000           -0.3846831             -10.4678
      1004        2.0000           -0.3817292             -10.3874
      1005        2.0000           -0.3801536             -10.3445
      1006        2.0000           -0.3790444             -10.3143
      1007        2.0000           -0.3776258             -10.2757 (HOMO)
      1008                         -0.2952298              -8.0336 (LUMO)
      1009                         -0.2871427              -7.8136
      1010                         -0.2867505              -7.8029
      1011                         -0.2838680              -7.7244
      1012                         -0.2814798              -7.6595
       ...                                ...                  ...
      1787                          1.3879558              37.7682
      -------------------------------------------------------------
                  HL-Gap            0.0823960 Eh            2.2421 eV
             Fermi-level           -0.3364278 Eh           -9.1547 eV

 SCC (total)                   0 d,  0 h,  0 min,  5.941 sec
 SCC setup                      ...        0 min,  0.049 sec (  0.823%)
 Dispersion                     ...        0 min,  0.144 sec (  2.425%)
 classical contributions        ...        0 min,  0.003 sec (  0.044%)
 integral evaluation            ...        0 min,  0.374 sec (  6.288%)
 iterations                     ...        0 min,  3.903 sec ( 65.690%)
 molecular gradient             ...        0 min,  1.399 sec ( 23.555%)
 printout                       ...        0 min,  0.070 sec (  1.174%)

         :::::::::::::::::::::::::::::::::::::::::::::::::::::
         ::                     SUMMARY                     ::
         :::::::::::::::::::::::::::::::::::::::::::::::::::::
         :: total energy           -1186.127530438378 Eh    ::
         :: total w/o Gsasa/hb     -1185.915550762443 Eh    ::
         :: gradient norm              0.621553035126 Eh/a0 ::
         :: HOMO-LUMO gap              2.242108702667 eV    ::
         ::.................................................::
         :: SCC energy             -1197.534576207255 Eh    ::
         :: -> isotropic ES            4.136980891590 Eh    ::
         :: -> anisotropic ES         -0.252196417724 Eh    ::
         :: -> anisotropic XC          0.172668370879 Eh    ::
         :: -> dispersion             -1.042212491824 Eh    ::
         :: -> Gsolv                  -0.693255598069 Eh    ::
         ::    -> Gelec               -0.481275922134 Eh    ::
         ::    -> Gsasa               -0.010721753213 Eh    ::
         ::    -> Ghb                 -0.203115365849 Eh    ::
         ::    -> Gshift               0.001857443127 Eh    ::
         :: repulsion energy          11.318362218681 Eh    ::
         :: add. restraining           0.000000000000 Eh    ::
         :: total charge               0.000000000000 e     ::
         :::::::::::::::::::::::::::::::::::::::::::::::::::::

           -------------------------------------------------
          |                Property Printout                |
           -------------------------------------------------

    * Orbital Energies and Occupations

         #    Occupation            Energy/Eh            Energy/eV
      -------------------------------------------------------------
         1        2.0000           -0.7861506             -21.3922
       ...           ...                  ...                  ...
       995        2.0000           -0.3962829             -10.7834
       996        2.0000           -0.3940326             -10.7222
       997        2.0000           -0.3911677             -10.6442
       998        2.0000           -0.3909632             -10.6386
       999        2.0000           -0.3905706             -10.6280
      1000        2.0000           -0.3892896             -10.5931
      1001        2.0000           -0.3882375             -10.5645
      1002        2.0000           -0.3873504             -10.5403
      1003        2.0000           -0.3846831             -10.4678
      1004        2.0000           -0.3817292             -10.3874
      1005        2.0000           -0.3801536             -10.3445
      1006        2.0000           -0.3790444             -10.3143
      1007        2.0000           -0.3776258             -10.2757 (HOMO)
      1008                         -0.2952298              -8.0336 (LUMO)
      1009                         -0.2871427              -7.8136
      1010                         -0.2867505              -7.8029
      1011                         -0.2838680              -7.7244
      1012                         -0.2814798              -7.6595
      1013                         -0.2810360              -7.6474
      1014                         -0.2755804              -7.4989
      1015                         -0.2755330              -7.4976
      1016                         -0.2747836              -7.4772
      1017                         -0.2743571              -7.4656
      1018                         -0.2704861              -7.3603
       ...                                ...                  ...
      1787                          1.3879558              37.7682
      -------------------------------------------------------------
                  HL-Gap            0.0823960 Eh            2.2421 eV
             Fermi-level           -0.3364278 Eh           -9.1547 eV

 * generalized Born model for continuum solvation

     #   Z     Born rad/Å   SASA/Å²    H-bond
     1   8 O        2.286     7.809    -0.001
     2   6 C        2.732     0.748    -0.000
     3   6 C        3.128     0.253    -0.000
     4   8 O        2.781     8.905    -0.001
     5   6 C        3.225     0.267    -0.000
     6   8 O        2.616     4.589    -0.001
     7   6 C        3.295     0.034    -0.000
     8   6 C        3.374     0.948    -0.000
     9   7 N        3.554     1.940    -0.001
    10   6 C        3.076     7.103    -0.000
    11   7 N        2.711    14.832    -0.004
    12   6 C        3.856     3.470    -0.000
    13   6 C        3.588     3.442    -0.000
    14   7 N        2.575     4.513    -0.001
    15   7 N        3.278     0.946    -0.000
    16   6 C        3.146     4.808    -0.000
    17   7 N        2.868     9.036    -0.003
    18   6 C        3.900     3.620    -0.000
    19   1 H        2.070    17.737    -0.024
    20   1 H        2.075    17.601    -0.024
    21   1 H        2.151    16.056    -0.021
    22   1 H        2.247     7.534    -0.010
    23   1 H        2.451     1.241    -0.002
    24   1 H        2.406     0.198    -0.000
    25   1 H        2.267    14.428    -0.019
    26   1 H        2.238     9.571    -0.013
    27   1 H        2.450     2.941    -0.004
    28   1 H        2.159    20.344    -0.027
    29   1 H        2.299     8.861    -0.012
    30   1 H        1.924    22.349    -0.030
    31  15 P        3.207     8.739    -0.001
    32   8 O        2.219    13.474    -0.002
    33   8 O        2.205    24.111    -0.003
    34   8 O        2.666     0.601    -0.000
    35   6 C        2.864     0.484    -0.000
    36   6 C        3.252     0.220    -0.000
    37   8 O        2.994     4.951    -0.001
    38   6 C        3.313     0.199    -0.000
    39   8 O        2.640     4.278    -0.001
    40   6 C        3.285     0.592    -0.000
    41   6 C        3.619     0.281    -0.000
    42   7 N        3.617     0.197    -0.000
    43   6 C        3.556     0.098    -0.000
    44   8 O        2.554     9.952    -0.001
    45   7 N        3.282     0.079    -0.000
    46   6 C        3.410     2.402    -0.000
    47   8 O        2.553    11.292    -0.002
    48   6 C        3.615     2.543    -0.000
    49   6 C        2.743     2.877    -0.000
    50   6 C        3.416     3.245    -0.000
    51   1 H        2.160    11.439    -0.015
    52   1 H        2.138    13.008    -0.017
    53   1 H        2.183    15.823    -0.021
    54   1 H        2.297     7.111    -0.010
    55   1 H        2.347     9.642    -0.013
    56   1 H        2.369     4.519    -0.006
    57   1 H        2.446     7.745    -0.010
    58   1 H        3.208     0.048    -0.000
    59   1 H        2.236     6.860    -0.009
    60   1 H        2.186    11.083    -0.015
    61   1 H        2.108    19.003    -0.025
    62   1 H        2.421     2.626    -0.004
    63  15 P        3.240     6.876    -0.001
    64   8 O        2.239    11.391    -0.002
    65   8 O        2.232    21.881    -0.003
    66   8 O        2.655     1.064    -0.000
    67   6 C        2.850     0.466    -0.000
    68   6 C        3.228     0.181    -0.000
    69   8 O        2.898     8.998    -0.001
    70   6 C        3.300     0.088    -0.000
    71   8 O        2.625     4.645    -0.001
    72   6 C        3.357     0.037    -0.000
    73   6 C        3.492     0.699    -0.000
    74   7 N        3.766     1.385    -0.000
    75   6 C        3.336     4.074    -0.000
    76   7 N        3.010     6.859    -0.002
    77   6 C        4.128     1.049    -0.000
    78   6 C        3.681     0.343    -0.000
    79   8 O        2.757     4.691    -0.001
    80   7 N        3.614     0.007    -0.000
    81   6 C        3.852     2.393    -0.000
    82   7 N        2.745     3.705    -0.001
    83   7 N        3.121     7.748    -0.002
    84   6 C        4.164     3.543    -0.000
    85   1 H        2.136    14.424    -0.019
    86   1 H        2.134    14.099    -0.019
    87   1 H        2.192    15.798    -0.021
    88   1 H        2.306     6.892    -0.009
    89   1 H        2.464     5.063    -0.007
    90   1 H        2.482     0.246    -0.000
    91   1 H        2.332    14.104    -0.019
    92   1 H        2.459     1.479    -0.002
    93   1 H        3.430     0.014    -0.000
    94   1 H        2.654     2.936    -0.004
    95   1 H        2.246    19.503    -0.026
    96  15 P        3.220     8.513    -0.001
    97   8 O        2.217    12.251    -0.002
    98   8 O        2.215    23.616    -0.003
    99   8 O        2.653     2.049    -0.000
   100   6 C        2.871     0.537    -0.000
   101   6 C        3.370     0.075    -0.000
   102   8 O        3.033     4.930    -0.001
   103   6 C        3.391     0.013    -0.000
   104   8 O        2.747     1.296    -0.000
   105   6 C        3.513     0.057    -0.000
   106   6 C        3.606     0.510    -0.000
   107   7 N        4.069     0.017    -0.000
   108   6 C        3.412     0.527    -0.000
   109   7 N        2.950    11.713    -0.004
   110   6 C        4.347     0.074    -0.000
   111   6 C        3.738     0.090    -0.000
   112   8 O        2.677     8.640    -0.001
   113   7 N        3.752     0.007    -0.000
   114   6 C        4.072     0.020    -0.000
   115   7 N        2.815     0.520    -0.000
   116   7 N        3.338     4.008    -0.001
   117   6 C        4.610     0.004    -0.000
   118   1 H        2.183    12.145    -0.016
   119   1 H        2.137    13.975    -0.019
   120   1 H        2.303    13.591    -0.018
   121   1 H        2.319     4.885    -0.007
   122   1 H        2.818     0.000    -0.000
   123   1 H        2.501     1.736    -0.002
   124   1 H        2.350    13.080    -0.017
   125   1 H        2.413     4.572    -0.006
   126   1 H        3.538     0.006    -0.000
   127   1 H        2.730     1.471    -0.002
   128   1 H        2.293    17.090    -0.023
   129  15 P        3.247     8.414    -0.001
   130   8 O        2.236    11.398    -0.002
   131   8 O        2.221    20.554    -0.003
   132   8 O        2.742     0.755    -0.000
   133   6 C        2.915     0.520    -0.000
   134   6 C        3.295     0.180    -0.000
   135   8 O        3.002     5.819    -0.001
   136   6 C        3.344     0.017    -0.000
   137   8 O        2.638     6.223    -0.001
   138   6 C        3.414     0.032    -0.000
   139   6 C        3.574     0.648    -0.000
   140   7 N        3.734     0.218    -0.000
   141   6 C        3.541     0.727    -0.000
   142   8 O        2.521    13.847    -0.002
   143   7 N        3.312     0.033    -0.000
   144   6 C        3.601     0.001    -0.000
   145   8 O        2.679     5.787    -0.001
   146   6 C        3.861     0.027    -0.000
   147   6 C        2.773     2.712    -0.000
   148   6 C        3.630     0.410    -0.000
   149   1 H        2.190    12.098    -0.016
   150   1 H        2.143    14.326    -0.019
   151   1 H        2.188    16.252    -0.022
   152   1 H        2.344     5.013    -0.007
   153   1 H        2.522     2.574    -0.003
   154   1 H        2.491     1.260    -0.002
   155   1 H        2.359    12.386    -0.017
   156   1 H        2.980     0.233    -0.000
   157   1 H        2.192    11.102    -0.015
   158   1 H        2.181     9.620    -0.013
   159   1 H        2.161    14.139    -0.019
   160   1 H        2.505     1.952    -0.003
   161  15 P        3.381     4.658    -0.001
   162   7 N        3.980     0.000    -0.000
   163   6 C        4.356    -0.011     0.000
   164   7 N        2.999     0.115    -0.000
   165   7 N        3.396     3.613    -0.001
   166   6 C        4.626     0.655    -0.000
   167   6 C        4.401     0.022    -0.000
   168   6 C        3.820     0.032    -0.000
   169   8 O        2.679     7.283    -0.001
   170   7 N        3.003     5.956    -0.002
   171   6 C        3.393     1.952    -0.000
   172   7 N        4.054     0.472    -0.000
   173   5 B        2.777     7.460     0.000
   174   6 C        3.662     0.699    -0.000
   175   6 C        3.440     0.017    -0.000
   176   6 C        3.350     0.076    -0.000
   177   8 O        2.675     3.243    -0.000
   178   6 C        3.353     0.083    -0.000
   179   8 O        3.071     4.088    -0.001
   180   6 C        2.924     0.349    -0.000
   181   8 O        2.696     2.564    -0.000
   182   8 O        2.248    14.859    -0.002
   183   1 H        3.960     0.000    -0.000
   184   1 H        2.374     7.458    -0.010
   185   1 H        2.045    16.101    -0.022
   186   1 H        2.001    20.305    -0.027
   187   1 H        2.031    17.177    -0.023
   188   1 H        2.393    13.413    -0.018
   189   1 H        2.533     2.116    -0.003
   190   1 H        2.495     1.582    -0.002
   191   1 H        3.039     0.126    -0.000
   192   1 H        2.400    10.873    -0.015
   193   1 H        2.281     8.447    -0.011
   194   1 H        2.312    13.226    -0.018
   195   1 H        2.222    10.175    -0.014
   196   1 H        2.218     8.944    -0.012
   197  15 P        3.228     8.691    -0.001
   198   8 O        2.226    12.081    -0.002
   199   8 O        2.207    24.313    -0.003
   200   8 O        2.653     2.200    -0.000
   201   6 C        2.875     0.440    -0.000
   202   6 C        3.318     0.129    -0.000
   203   8 O        3.103     3.968    -0.001
   204   6 C        3.379     0.043    -0.000
   205   8 O        2.685     3.667    -0.001
   206   6 C        3.492     0.014    -0.000
   207   6 C        3.723     0.180    -0.000
   208   7 N        3.970     0.001    -0.000
   209   6 C        3.857     0.005    -0.000
   210   8 O        2.837     3.996    -0.001
   211   7 N        3.827     0.000    -0.000
   212   6 C        3.961     0.002    -0.000
   213   7 N        2.766     0.708    -0.000
   214   6 C        3.431     0.335    -0.000
   215   6 C        3.552     0.028    -0.000
   216   1 H        2.188    11.784    -0.016
   217   1 H        2.133    14.706    -0.020
   218   1 H        2.238    14.934    -0.020
   219   1 H        2.301     6.184    -0.008
   220   1 H        2.636     0.001    -0.000
   221   1 H        2.514     1.222    -0.002
   222   1 H        2.422     9.833    -0.013
   223   1 H        2.725     1.384    -0.002
   224   1 H        2.268    16.817    -0.022
   225   1 H        2.198    14.791    -0.020
   226   1 H        2.440     3.523    -0.005
   227  15 P        3.237     9.849    -0.001
   228   8 O        2.223    14.147    -0.002
   229   8 O        2.218    20.168    -0.003
   230   8 O        2.699     1.193    -0.000
   231   6 C        2.902     0.415    -0.000
   232   6 C        3.331     0.113    -0.000
   233   8 O        3.117     3.089    -0.000
   234   6 C        3.346     0.023    -0.000
   235   8 O        2.618     6.966    -0.001
   236   6 C        3.448     0.029    -0.000
   237   6 C        3.735     0.066    -0.000
   238   7 N        3.907     0.006    -0.000
   239   6 C        3.835     0.001    -0.000
   240   8 O        2.716     4.493    -0.001
   241   7 N        3.494     0.001    -0.000
   242   6 C        3.657     0.001    -0.000
   243   8 O        2.666     5.175    -0.001
   244   6 C        3.844     0.004    -0.000
   245   6 C        2.787     2.560    -0.000
   246   6 C        3.579     0.154    -0.000
   247   1 H        2.211    10.800    -0.014
   248   1 H        2.151    12.768    -0.017
   249   1 H        2.249    15.073    -0.020
   250   1 H        2.329     4.991    -0.007
   251   1 H        2.537     2.464    -0.003
   252   1 H        2.579     0.958    -0.001
   253   1 H        2.463     7.804    -0.010
   254   1 H        3.366     0.000    -0.000
   255   1 H        2.209     7.189    -0.010
   256   1 H        2.147    13.328    -0.018
   257   1 H        2.256     6.242    -0.008
   258   1 H        2.462     2.970    -0.004
   259  15 P        3.197     9.879    -0.001
   260   8 O        2.174    24.663    -0.003
   261   8 O        2.224    15.156    -0.002
   262   8 O        2.614     2.734    -0.000
   263   6 C        2.838     0.410    -0.000
   264   6 C        3.181     0.253    -0.000
   265   8 O        2.992     2.548    -0.000
   266   6 C        3.110     0.125    -0.000
   267   8 O        2.274    14.605    -0.002
   268   6 C        3.081     0.822    -0.000
   269   6 C        3.445     0.117    -0.000
   270   7 N        3.578     0.049    -0.000
   271   6 C        3.402     3.479    -0.000
   272   8 O        2.584     9.330    -0.001
   273   7 N        3.353     2.632    -0.001
   274   6 C        3.627     4.150    -0.000
   275   7 N        2.645     3.739    -0.001
   276   6 C        3.302     4.523    -0.000
   277   6 C        3.390     1.491    -0.000
   278   1 H        2.180    11.976    -0.016
   279   1 H        2.109    14.701    -0.020
   280   1 H        2.178    15.177    -0.020
   281   1 H        2.201    11.187    -0.015
   282   1 H        1.938    20.791    -0.028
   283   1 H        2.250    12.664    -0.017
   284   1 H        2.159    15.266    -0.020
   285   1 H        2.301    11.408    -0.015
   286   1 H        2.526     5.057    -0.007
   287   1 H        2.231    12.014    -0.016
   288   1 H        2.182    13.442    -0.018
   289   1 H        2.400     4.926    -0.007
   290   8 O        2.260    14.473    -0.002
   291   6 C        2.709     1.594    -0.000
   292   6 C        3.158     0.176    -0.000
   293   8 O        2.810     8.827    -0.001
   294   6 C        3.323     0.043    -0.000
   295   8 O        2.632     5.910    -0.001
   296   6 C        3.615     0.003    -0.000
   297   8 O        2.564     8.434    -0.001
   298   6 C        3.475     0.666    -0.000
   299   7 N        3.681     0.914    -0.000
   300   6 C        3.089     8.039    -0.000
   301   7 N        2.714    17.143    -0.005
   302   6 C        3.794     3.257    -0.000
   303   6 C        3.373     3.979    -0.000
   304   8 O        2.503    13.362    -0.002
   305   7 N        3.397     1.797    -0.001
   306   6 C        3.708     4.291    -0.000
   307   7 N        2.692     3.878    -0.001
   308   7 N        3.108     6.681    -0.002
   309   6 C        4.082     3.056    -0.000
   310   1 H        2.060    18.275    -0.024
   311   1 H        2.066    18.110    -0.024
   312   1 H        2.185    15.408    -0.021
   313   1 H        2.322     6.027    -0.008
   314   1 H        2.731     1.895    -0.003
   315   1 H        2.476     0.261    -0.000
   316   1 H        2.346    13.032    -0.017
   317   1 H        2.227     9.076    -0.012
   318   1 H        3.226     1.073    -0.001
   319   1 H        2.556     4.341    -0.006
   320   1 H        2.230    16.789    -0.022
   321   1 H        1.960    15.094    -0.020
   322  15 P        3.240     7.177    -0.001
   323   8 O        2.193    23.840    -0.003
   324   8 O        2.253    10.347    -0.001
   325   8 O        2.735     2.175    -0.000
   326   6 C        2.895     0.486    -0.000
   327   6 C        3.353     0.161    -0.000
   328   8 O        3.107     4.728    -0.001
   329   6 C        3.494     0.018    -0.000
   330   8 O        2.665     4.701    -0.001
   331   6 C        3.625     0.218    -0.000
   332   8 O        2.417    12.704    -0.002
   333   6 C        3.661     0.365    -0.000
   334   7 N        4.114     0.013    -0.000
   335   6 C        3.527     2.402    -0.000
   336   7 N        3.074     8.801    -0.003
   337   6 C        4.880     0.185    -0.000
   338   6 C        4.483     0.002    -0.000
   339   7 N        2.917     0.065    -0.000
   340   7 N        3.823     0.000     0.000
   341   6 C        3.519     0.181    -0.000
   342   7 N        3.198     4.874    -0.001
   343   6 C        4.798     0.000    -0.000
   344   1 H        2.206    11.949    -0.016
   345   1 H        2.131    14.118    -0.019
   346   1 H        2.259    12.819    -0.017
   347   1 H        2.422     4.156    -0.006
   348   1 H        2.672     0.051    -0.000
   349   1 H        2.096     9.613    -0.013
   350   1 H        2.377    10.415    -0.014
   351   1 H        2.622     2.344    -0.003
   352   1 H        2.896     0.127    -0.000
   353   1 H        2.393     9.524    -0.013
   354   1 H        2.428     6.024    -0.008
   355  15 P        3.255     7.495    -0.001
   356   8 O        2.229    11.479    -0.002
   357   8 O        2.228    24.097    -0.003
   358   8 O        2.732     1.567    -0.000
   359   6 C        2.923     0.458    -0.000
   360   6 C        3.402     0.178    -0.000
   361   8 O        3.156     4.126    -0.001
   362   6 C        3.562     0.000    -0.000
   363   8 O        2.678     4.885    -0.001
   364   6 C        3.702     0.000    -0.000
   365   8 O        2.436     9.190    -0.001
   366   6 C        3.838     0.127    -0.000
   367   7 N        4.436     0.000    -0.000
   368   6 C        3.635     1.443    -0.000
   369   7 N        3.099    10.048    -0.003
   370   6 C        4.786     0.012    -0.000
   371   6 C        4.002     0.009    -0.000
   372   8 O        2.750     7.182    -0.001
   373   7 N        3.982     0.000    -0.000
   374   6 C        4.363     0.000    -0.000
   375   7 N        2.935     0.237    -0.000
   376   7 N        3.471     3.068    -0.001
   377   6 C        5.054     0.000     0.000
   378   1 H        2.271     6.606    -0.009
   379   1 H        2.156    12.790    -0.017
   380   1 H        2.256    14.028    -0.019
   381   1 H        2.532     1.756    -0.002
   382   1 H        2.779     0.004    -0.000
   383   1 H        2.051    14.218    -0.019
   384   1 H        2.456     9.087    -0.012
   385   1 H        2.585     2.152    -0.003
   386   1 H        3.702     0.000    -0.000
   387   1 H        2.801     1.393    -0.002
   388   1 H        2.377     9.906    -0.013
   389  15 P        3.272     7.135    -0.001
   390   8 O        2.235    11.423    -0.002
   391   8 O        2.245    21.018    -0.003
   392   8 O        2.755     1.973    -0.000
   393   6 C        2.921     0.462    -0.000
   394   6 C        3.435     0.104    -0.000
   395   8 O        3.126     2.759    -0.000
   396   6 C        3.598     0.021    -0.000
   397   8 O        2.742     4.221    -0.001
   398   6 C        3.809     0.071    -0.000
   399   8 O        2.502    11.849    -0.002
   400   6 C        3.864     0.131    -0.000
   401   7 N        4.209     0.000     0.000
   402   6 C        4.087     0.000    -0.000
   403   8 O        2.885     5.287    -0.001
   404   7 N        4.088     0.000     0.000
   405   6 C        4.188     0.055    -0.000
   406   7 N        2.837     0.599    -0.000
   407   6 C        3.559     2.887    -0.000
   408   6 C        3.731     0.468    -0.000
   409   1 H        2.230     8.361    -0.011
   410   1 H        2.148    14.327    -0.019
   411   1 H        2.274    13.349    -0.018
   412   1 H        2.461     3.938    -0.005
   413   1 H        2.787     0.012    -0.000
   414   1 H        2.233     6.197    -0.008
   415   1 H        2.474     7.612    -0.010
   416   1 H        2.873     0.804    -0.001
   417   1 H        2.300    16.031    -0.021
   418   1 H        2.254    11.667    -0.016
   419   1 H        2.719     0.188    -0.000
   420  15 P        3.294     6.625    -0.001
   421   8 O        2.245    11.122    -0.002
   422   8 O        2.245    23.341    -0.003
   423   8 O        2.839     0.394    -0.000
   424   6 C        2.982     0.531    -0.000
   425   6 C        3.424     0.260    -0.000
   426   8 O        3.108     3.852    -0.001
   427   6 C        3.573     0.000     0.000
   428   8 O        2.682     4.843    -0.001
   429   6 C        3.641     0.000    -0.000
   430   8 O        2.406    10.396    -0.001
   431   6 C        3.856     0.080    -0.000
   432   7 N        4.332     0.000    -0.000
   433   6 C        3.627     1.422    -0.000
   434   7 N        3.230     5.296    -0.002
   435   6 C        5.148     0.000     0.000
   436   6 C        4.503     0.000    -0.000
   437   7 N        2.906     0.212    -0.000
   438   7 N        3.655     0.031    -0.000
   439   6 C        3.468     0.325    -0.000
   440   7 N        3.268     3.302    -0.001
   441   6 C        5.048     0.000     0.000
   442   1 H        2.315     7.409    -0.010
   443   1 H        2.192    10.333    -0.014
   444   1 H        2.234    14.870    -0.020
   445   1 H        2.543     1.260    -0.002
   446   1 H        2.643     0.013    -0.000
   447   1 H        2.037    16.664    -0.022
   448   1 H        2.560     4.011    -0.005
   449   1 H        2.619     1.270    -0.002
   450   1 H        2.750     1.232    -0.002
   451   1 H        2.449     8.637    -0.012
   452   1 H        2.371    11.110    -0.015
   453  15 P        3.267     6.036    -0.001
   454   8 O        2.234    12.497    -0.002
   455   8 O        2.245    21.033    -0.003
   456   8 O        2.720     1.950    -0.000
   457   6 C        2.892     0.526    -0.000
   458   6 C        3.393     0.123    -0.000
   459   8 O        3.100     2.861    -0.000
   460   6 C        3.494     0.000    -0.000
   461   8 O        2.711     3.683    -0.001
   462   6 C        3.616     0.080    -0.000
   463   8 O        2.434    12.646    -0.002
   464   6 C        3.731     0.102    -0.000
   465   7 N        3.928     0.003    -0.000
   466   6 C        3.836     0.019    -0.000
   467   8 O        2.833     5.456    -0.001
   468   7 N        3.833     0.003    -0.000
   469   6 C        4.083     0.061    -0.000
   470   7 N        2.809     0.548    -0.000
   471   6 C        3.520     2.584    -0.000
   472   6 C        3.556     1.341    -0.000
   473   1 H        2.193    10.294    -0.014
   474   1 H        2.147    12.736    -0.017
   475   1 H        2.275    13.058    -0.017
   476   1 H        2.385     4.510    -0.006
   477   1 H        2.574     0.021    -0.000
   478   1 H        2.135     7.473    -0.010
   479   1 H        2.414     9.515    -0.013
   480   1 H        2.697     2.605    -0.003
   481   1 H        2.302    15.533    -0.021
   482   1 H        2.256    12.038    -0.016
   483   1 H        2.516     1.095    -0.001
   484  15 P        3.251     7.565    -0.001
   485   8 O        2.241    13.013    -0.002
   486   8 O        2.212    24.855    -0.003
   487   8 O        2.705     2.100    -0.000
   488   6 C        2.928     0.370    -0.000
   489   6 C        3.379     0.158    -0.000
   490   8 O        3.038     4.487    -0.001
   491   6 C        3.535     0.002    -0.000
   492   8 O        2.668     4.871    -0.001
   493   6 C        3.578     0.000    -0.000
   494   8 O        2.405     9.219    -0.001
   495   6 C        3.720     0.153    -0.000
   496   7 N        3.853     0.000     0.000
   497   6 C        3.763     0.000    -0.000
   498   8 O        2.757     5.237    -0.001
   499   7 N        3.772     0.000     0.000
   500   6 C        4.139     0.000    -0.000
   501   7 N        2.899     0.095    -0.000
   502   6 C        3.535     1.658    -0.000
   503   6 C        3.519     1.185    -0.000
   504   1 H        2.278     7.017    -0.009
   505   1 H        2.178    10.419    -0.014
   506   1 H        2.264    13.342    -0.018
   507   1 H        2.524     2.265    -0.003
   508   1 H        2.595     0.023    -0.000
   509   1 H        2.017    16.740    -0.022
   510   1 H        2.419     7.987    -0.011
   511   1 H        2.811     0.982    -0.001
   512   1 H        2.402     9.459    -0.013
   513   1 H        2.261    11.870    -0.016
   514   1 H        2.475     2.390    -0.003
   515  15 P        3.265     7.637    -0.001
   516   8 O        2.237    13.901    -0.002
   517   8 O        2.231    23.813    -0.003
   518   8 O        2.824     0.276    -0.000
   519   6 C        2.942     0.552    -0.000
   520   6 C        3.374     0.217    -0.000
   521   8 O        3.033     4.572    -0.001
   522   6 C        3.528     0.000    -0.000
   523   8 O        2.665     4.892    -0.001
   524   6 C        3.594     0.001    -0.000
   525   8 O        2.415     8.517    -0.001
   526   6 C        3.708     0.260    -0.000
   527   7 N        4.138     0.026    -0.000
   528   6 C        3.488     1.433    -0.000
   529   7 N        3.063     6.974    -0.002
   530   6 C        4.664     0.001    -0.000
   531   6 C        4.199     0.000    -0.000
   532   7 N        2.819     0.179    -0.000
   533   7 N        3.571     0.150    -0.000
   534   6 C        3.289     1.161    -0.000
   535   7 N        3.053     6.998    -0.002
   536   6 C        4.557     0.301    -0.000
   537   1 H        2.225     8.218    -0.011
   538   1 H        2.177    10.421    -0.014
   539   1 H        2.226    14.602    -0.020
   540   1 H        2.505     2.223    -0.003
   541   1 H        2.587     0.029    -0.000
   542   1 H        2.030    14.961    -0.020
   543   1 H        2.419    11.407    -0.015
   544   1 H        2.556     1.196    -0.002
   545   1 H        2.738     0.554    -0.001
   546   1 H        2.347    11.071    -0.015
   547   1 H        2.314    12.561    -0.017
   548  15 P        3.236     8.905    -0.001
   549   8 O        2.224    14.686    -0.002
   550   8 O        2.216    22.466    -0.003
   551   8 O        2.713     1.008    -0.000
   552   6 C        2.895     0.424    -0.000
   553   6 C        3.242     0.280    -0.000
   554   8 O        2.904     4.631    -0.001
   555   6 C        3.260     0.209    -0.000
   556   8 O        2.286    16.423    -0.002
   557   6 C        3.266     0.428    -0.000
   558   8 O        2.303    16.131    -0.002
   559   6 C        3.499     0.492    -0.000
   560   7 N        3.570     0.007    -0.000
   561   6 C        3.358     2.128    -0.000
   562   8 O        2.457    14.093    -0.002
   563   7 N        3.078     2.041    -0.001
   564   6 C        3.227     4.175    -0.000
   565   8 O        2.433    15.389    -0.002
   566   6 C        3.149     4.234    -0.000
   567   6 C        3.327     1.828    -0.000
   568   1 H        2.204     8.736    -0.012
   569   1 H        2.173     9.671    -0.013
   570   1 H        2.191    12.838    -0.017
   571   1 H        2.385     7.877    -0.011
   572   1 H        1.976    16.081    -0.021
   573   1 H        2.277    13.347    -0.018
   574   1 H        2.003    14.622    -0.020
   575   1 H        2.335    11.019    -0.015
   576   1 H        2.900     2.059    -0.003
   577   1 H        2.156    14.869    -0.020
   578   1 H        2.487     1.071    -0.001
   579   1 H        1.941    17.138    -0.023
   580   1 H        1.935    17.769    -0.024
   581   1 H        1.922    20.046    -0.027
   582   1 H        1.907    22.436    -0.030
   583   1 H        1.906    23.705    -0.032
   584   1 H        1.902    23.820    -0.032
   585   1 H        1.899    23.814    -0.032
   586   1 H        1.906    23.804    -0.032
   587   1 H        1.968    16.233    -0.022
   588   1 H        1.928    19.009    -0.025
   589   1 H        1.915    21.844    -0.029
   590   1 H        1.917    22.406    -0.030
   591   1 H        1.906    22.885    -0.031
   592   1 H        1.922    21.251    -0.028
   593   1 H        1.918    19.862    -0.027
   594   1 H        1.961    16.940    -0.023

 total SASA / Å² :     3602.025

     #   Z          covCN         q      C6AA      α(0)
     1   8 O        1.654    -0.492    22.718     6.434
     2   6 C        3.672     0.059    19.825     6.381
     3   6 C        3.778     0.093    19.070     6.222
     4   8 O        1.699    -0.307    19.109     5.902
     5   6 C        3.918     0.110    18.727     6.150
     6   8 O        1.657    -0.336    19.642     5.983
     7   6 C        3.819    -0.087    22.143     6.697
     8   6 C        3.713     0.171    17.982     6.059
     9   7 N        2.847    -0.060    22.399     7.029
    10   6 C        3.247     0.109    24.669     8.044
    11   7 N        1.870    -0.301    28.644     7.933
    12   6 C        3.275     0.009    26.461     8.287
    13   6 C        2.909     0.173    24.292     8.082
    14   7 N        2.666    -0.257    26.661     7.669
    15   7 N        1.861    -0.331    29.429     8.041
    16   6 C        2.939     0.146    24.822     8.171
    17   7 N        1.826    -0.334    29.503     8.049
    18   6 C        3.177     0.132    24.750     8.123
    19   1 H        0.925     0.068     2.110     2.272
    20   1 H        0.925     0.052     2.299     2.371
    21   1 H        0.924     0.081     1.970     2.195
    22   1 H        0.924     0.069     2.094     2.263
    23   1 H        0.924     0.066     2.130     2.282
    24   1 H        0.925     0.072     2.068     2.249
    25   1 H        0.925     0.069     2.094     2.263
    26   1 H        0.926     0.084     1.937     2.176
    27   1 H        0.860     0.230     0.965     1.539
    28   1 H        0.860     0.239     0.929     1.510
    29   1 H        0.926     0.034     2.530     2.487
    30   1 H        0.805     0.355     0.576     1.192
    31  15 P        3.709     0.729   131.710    20.616
    32   8 O        1.614    -0.388    20.633     6.131
    33   8 O        0.808    -0.584    25.760     6.803
    34   8 O        1.656    -0.336    19.643     5.983
    35   6 C        3.873     0.052    19.658     6.304
    36   6 C        3.801     0.087    19.137     6.228
    37   8 O        1.703    -0.309    19.159     5.910
    38   6 C        3.974     0.106    18.773     6.156
    39   8 O        1.657    -0.340    19.721     5.995
    40   6 C        3.821    -0.092    22.235     6.711
    41   6 C        3.746     0.171    17.919     6.038
    42   7 N        2.740    -0.059    22.387     7.027
    43   6 C        2.701     0.331    21.368     7.566
    44   8 O        0.858    -0.489    23.545     6.506
    45   7 N        2.697    -0.182    24.938     7.417
    46   6 C        2.762     0.276    22.332     7.739
    47   8 O        0.859    -0.460    22.907     6.417
    48   6 C        2.952    -0.041    29.019     8.835
    49   6 C        3.756    -0.122    22.892     6.822
    50   6 C        2.854     0.021    27.531     8.600
    51   1 H        0.924     0.096     1.826     2.113
    52   1 H        0.924     0.088     1.902     2.157
    53   1 H        0.924     0.096     1.827     2.114
    54   1 H        0.924     0.068     2.104     2.268
    55   1 H        0.925     0.082     1.961     2.190
    56   1 H        0.925     0.067     2.113     2.273
    57   1 H        0.925     0.068     2.104     2.268
    58   1 H        0.860     0.248     0.892     1.480
    59   1 H        0.924     0.070     2.082     2.257
    60   1 H        0.925     0.066     2.131     2.283
    61   1 H        0.925     0.087     1.913     2.163
    62   1 H        0.926     0.100     1.785     2.089
    63  15 P        3.779     0.753   130.916    20.554
    64   8 O        1.614    -0.398    20.829     6.160
    65   8 O        0.808    -0.595    26.020     6.838
    66   8 O        1.656    -0.339    19.707     5.993
    67   6 C        3.895     0.052    19.653     6.302
    68   6 C        3.803     0.090    19.099     6.222
    69   8 O        1.703    -0.302    19.030     5.890
    70   6 C        3.912     0.108    18.749     6.154
    71   8 O        1.656    -0.333    19.590     5.975
    72   6 C        3.822    -0.092    22.233     6.710
    73   6 C        3.730     0.164    18.050     6.065
    74   7 N        2.838    -0.056    22.325     7.018
    75   6 C        3.132     0.103    25.535     8.272
    76   7 N        1.877    -0.316    29.038     7.988
    77   6 C        3.193    -0.001    27.527     8.556
    78   6 C        2.771     0.265    22.533     7.774
    79   8 O        0.860    -0.510    24.006     6.569
    80   7 N        2.715    -0.201    25.372     7.481
    81   6 C        2.828     0.238    23.037     7.865
    82   7 N        2.666    -0.273    27.051     7.725
    83   7 N        1.842    -0.354    30.068     8.126
    84   6 C        3.074     0.122    25.254     8.240
    85   1 H        0.924     0.100     1.789     2.092
    86   1 H        0.924     0.086     1.921     2.167
    87   1 H        0.924     0.103     1.759     2.074
    88   1 H        0.924     0.061     2.183     2.311
    89   1 H        0.925     0.055     2.259     2.350
    90   1 H        0.925     0.090     1.878     2.143
    91   1 H        0.925     0.089     1.891     2.151
    92   1 H        0.926     0.056     2.245     2.343
    93   1 H        0.860     0.230     0.967     1.540
    94   1 H        0.860     0.245     0.902     1.488
    95   1 H        0.860     0.265     0.829     1.426
    96  15 P        3.708     0.742   131.290    20.583
    97   8 O        1.614    -0.387    20.620     6.129
    98   8 O        0.808    -0.602    26.208     6.862
    99   8 O        1.657    -0.335    19.623     5.980
   100   6 C        3.879     0.052    19.655     6.303
   101   6 C        3.818     0.087    19.123     6.224
   102   8 O        1.701    -0.315    19.252     5.924
   103   6 C        3.913     0.109    18.745     6.154
   104   8 O        1.659    -0.336    19.652     5.984
   105   6 C        3.848    -0.104    22.453     6.740
   106   6 C        3.709     0.158    18.180     6.094
   107   7 N        2.827    -0.062    22.439     7.035
   108   6 C        3.163     0.098    25.508     8.255
   109   7 N        1.873    -0.311    28.916     7.971
   110   6 C        3.207    -0.008    27.594     8.554
   111   6 C        2.772     0.261    22.604     7.787
   112   8 O        0.860    -0.509    23.987     6.566
   113   7 N        2.716    -0.194    25.214     7.458
   114   6 C        2.843     0.238    23.028     7.865
   115   7 N        2.671    -0.266    26.888     7.701
   116   7 N        1.850    -0.353    30.042     8.123
   117   6 C        3.112     0.117    25.292     8.239
   118   1 H        0.924     0.092     1.864     2.135
   119   1 H        0.924     0.092     1.861     2.133
   120   1 H        0.924     0.097     1.814     2.106
   121   1 H        0.924     0.063     2.169     2.303
   122   1 H        0.926     0.061     2.188     2.313
   123   1 H        0.925     0.104     1.745     2.066
   124   1 H        0.924     0.103     1.754     2.071
   125   1 H        0.926     0.056     2.247     2.344
   126   1 H        0.860     0.232     0.955     1.531
   127   1 H        0.860     0.240     0.925     1.507
   128   1 H        0.860     0.258     0.854     1.448
   129  15 P        3.769     0.762   130.600    20.529
   130   8 O        1.614    -0.398    20.828     6.160
   131   8 O        0.808    -0.595    26.023     6.838
   132   8 O        1.657    -0.329    19.524     5.965
   133   6 C        3.938     0.047    19.728     6.312
   134   6 C        3.817     0.087    19.123     6.224
   135   8 O        1.702    -0.300    18.987     5.883
   136   6 C        3.882     0.096    18.948     6.189
   137   8 O        1.656    -0.329    19.527     5.965
   138   6 C        3.841    -0.102    22.407     6.734
   139   6 C        3.723     0.159    18.132     6.081
   140   7 N        2.736    -0.071    22.608     7.062
   141   6 C        2.699     0.319    21.580     7.603
   142   8 O        0.858    -0.473    23.188     6.456
   143   7 N        2.695    -0.191    25.141     7.447
   144   6 C        2.762     0.279    22.287     7.731
   145   8 O        0.859    -0.468    23.091     6.443
   146   6 C        2.946    -0.032    28.803     8.802
   147   6 C        3.752    -0.123    22.921     6.827
   148   6 C        2.842     0.011    27.760     8.635
   149   1 H        0.924     0.097     1.814     2.106
   150   1 H        0.924     0.093     1.848     2.126
   151   1 H        0.924     0.105     1.737     2.061
   152   1 H        0.925     0.072     2.060     2.245
   153   1 H        0.925     0.072     2.066     2.248
   154   1 H        0.925     0.091     1.867     2.137
   155   1 H        0.925     0.097     1.815     2.107
   156   1 H        0.860     0.231     0.960     1.535
   157   1 H        0.924     0.063     2.164     2.300
   158   1 H        0.924     0.077     2.014     2.219
   159   1 H        0.924     0.087     1.904     2.158
   160   1 H        0.926     0.120     1.614     1.987
   161  15 P        3.845     0.589   136.653    20.999
   162   7 N        2.717    -0.205    25.451     7.493
   163   6 C        2.842     0.243    22.932     7.848
   164   7 N        2.667    -0.272    27.032     7.722
   165   7 N        1.844    -0.358    30.180     8.142
   166   6 C        3.092     0.117    25.322     8.248
   167   6 C        3.205    -0.013    27.743     8.579
   168   6 C        2.774     0.267    22.491     7.767
   169   8 O        0.860    -0.493    23.619     6.516
   170   7 N        1.873    -0.295    28.498     7.913
   171   6 C        3.130     0.086    25.888     8.330
   172   7 N        2.850    -0.051    22.222     7.001
   173   5 B        3.721     0.132    20.329     7.288
   174   6 C        3.754     0.159    18.083     6.064
   175   6 C        3.833    -0.102    22.421     6.737
   176   6 C        3.932     0.107    18.764     6.156
   177   8 O        1.657    -0.335    19.625     5.980
   178   6 C        3.837     0.093    19.021     6.205
   179   8 O        1.703    -0.313    19.228     5.920
   180   6 C        3.910     0.054    19.619     6.296
   181   8 O        1.657    -0.308    19.148     5.907
   182   8 O        1.613    -0.381    20.499     6.111
   183   1 H        0.861     0.230     0.966     1.540
   184   1 H        0.926     0.076     2.020     2.223
   185   1 H        0.924    -0.180     9.440     4.805
   186   1 H        0.924    -0.184     9.648     4.857
   187   1 H        0.924    -0.191    10.162     4.985
   188   1 H        0.925     0.087     1.908     2.160
   189   1 H        0.925     0.067     2.122     2.278
   190   1 H        0.925     0.100     1.785     2.089
   191   1 H        0.860     0.234     0.947     1.525
   192   1 H        0.860     0.243     0.910     1.494
   193   1 H        0.924     0.070     2.090     2.261
   194   1 H        0.924     0.082     1.961     2.190
   195   1 H        0.924     0.083     1.951     2.184
   196   1 H        0.925     0.088     1.903     2.157
   197  15 P        3.736     0.747   131.096    20.568
   198   8 O        1.614    -0.395    20.778     6.152
   199   8 O        0.808    -0.589    25.884     6.820
   200   8 O        1.656    -0.329    19.527     5.965
   201   6 C        3.891     0.052    19.656     6.303
   202   6 C        3.794     0.088    19.126     6.228
   203   8 O        1.702    -0.312    19.196     5.915
   204   6 C        3.929     0.106    18.785     6.159
   205   8 O        1.658    -0.334    19.621     5.980
   206   6 C        3.825    -0.102    22.424     6.738
   207   6 C        3.732     0.165    18.032     6.061
   208   7 N        2.746    -0.084    22.867     7.102
   209   6 C        2.757     0.324    21.491     7.592
   210   8 O        0.862    -0.520    24.232     6.600
   211   7 N        1.872    -0.375    30.641     8.205
   212   6 C        2.884     0.196    23.837     8.004
   213   7 N        2.679    -0.238    26.230     7.606
   214   6 C        2.913    -0.104    30.632     9.076
   215   6 C        2.867     0.034    27.233     8.554
   216   1 H        0.924     0.090     1.884     2.146
   217   1 H        0.924     0.091     1.866     2.136
   218   1 H        0.924     0.095     1.829     2.115
   219   1 H        0.924     0.071     2.074     2.252
   220   1 H        0.925     0.069     2.094     2.263
   221   1 H        0.925     0.095     1.828     2.114
   222   1 H        0.924     0.085     1.927     2.171
   223   1 H        0.860     0.232     0.958     1.533
   224   1 H        0.860     0.236     0.941     1.520
   225   1 H        0.926     0.087     1.906     2.159
   226   1 H        0.926     0.101     1.778     2.085
   227  15 P        3.715     0.748   131.068    20.565
   228   8 O        1.614    -0.388    20.633     6.131
   229   8 O        0.808    -0.574    25.505     6.770
   230   8 O        1.656    -0.335    19.623     5.980
   231   6 C        3.869     0.046    19.758     6.321
   232   6 C        3.813     0.091    19.064     6.215
   233   8 O        1.702    -0.306    19.100     5.901
   234   6 C        3.910     0.098    18.918     6.182
   235   8 O        1.656    -0.340    19.720     5.995
   236   6 C        3.839    -0.104    22.454     6.741
   237   6 C        3.738     0.163    18.047     6.062
   238   7 N        2.742    -0.074    22.682     7.073
   239   6 C        2.701     0.318    21.591     7.605
   240   8 O        0.859    -0.473    23.198     6.458
   241   7 N        2.696    -0.198    25.293     7.469
   242   6 C        2.761     0.270    22.436     7.757
   243   8 O        0.859    -0.456    22.822     6.405
   244   6 C        2.950    -0.046    29.133     8.853
   245   6 C        3.754    -0.127    23.004     6.839
   246   6 C        2.848     0.013    27.708     8.627
   247   1 H        0.924     0.087     1.904     2.158
   248   1 H        0.924     0.094     1.837     2.120
   249   1 H        0.925     0.094     1.845     2.124
   250   1 H        0.924     0.072     2.062     2.246
   251   1 H        0.925     0.084     1.934     2.175
   252   1 H        0.926     0.100     1.782     2.087
   253   1 H        0.925     0.079     1.986     2.204
   254   1 H        0.860     0.233     0.953     1.529
   255   1 H        0.924     0.080     1.984     2.203
   256   1 H        0.925     0.089     1.887     2.148
   257   1 H        0.925     0.068     2.111     2.272
   258   1 H        0.926     0.127     1.555     1.950
   259  15 P        3.670     0.732   131.626    20.609
   260   8 O        0.808    -0.566    25.327     6.746
   261   8 O        1.614    -0.375    20.394     6.095
   262   8 O        1.654    -0.333    19.600     5.976
   263   6 C        3.839     0.064    19.489     6.280
   264   6 C        3.760     0.095    19.055     6.223
   265   8 O        1.698    -0.328    19.498     5.962
   266   6 C        3.730     0.103    18.970     6.217
   267   8 O        1.655    -0.485    22.570     6.413
   268   6 C        3.807    -0.101    22.412     6.739
   269   6 C        3.703     0.170    18.008     6.068
   270   7 N        2.739    -0.079    22.781     7.089
   271   6 C        2.749     0.333    21.347     7.565
   272   8 O        0.861    -0.527    24.393     6.622
   273   7 N        1.861    -0.370    30.492     8.185
   274   6 C        2.880     0.189    23.971     8.026
   275   7 N        2.672    -0.243    26.340     7.622
   276   6 C        2.913    -0.113    30.865     9.110
   277   6 C        2.870     0.035    27.223     8.553
   278   1 H        0.924     0.067     2.114     2.274
   279   1 H        0.924     0.087     1.908     2.160
   280   1 H        0.924     0.078     2.005     2.214
   281   1 H        0.924     0.054     2.270     2.356
   282   1 H        0.805     0.357     0.572     1.188
   283   1 H        0.924     0.069     2.097     2.265
   284   1 H        0.924     0.081     1.966     2.193
   285   1 H        0.924     0.068     2.106     2.269
   286   1 H        0.860     0.238     0.931     1.512
   287   1 H        0.860     0.231     0.959     1.534
   288   1 H        0.926     0.097     1.812     2.105
   289   1 H        0.926     0.096     1.822     2.111
   290   8 O        1.654    -0.472    22.301     6.375
   291   6 C        3.673     0.053    19.913     6.395
   292   6 C        3.783     0.087    19.157     6.235
   293   8 O        1.699    -0.319    19.325     5.935
   294   6 C        3.941     0.094    18.969     6.189
   295   8 O        1.656    -0.326    19.466     5.956
   296   6 C        3.757     0.100    18.986     6.212
   297   8 O        1.658    -0.460    22.044     6.338
   298   6 C        3.717     0.162    18.100     6.077
   299   7 N        2.847    -0.063    22.450     7.037
   300   6 C        3.154     0.098    25.550     8.266
   301   7 N        1.876    -0.293    28.447     7.906
   302   6 C        3.211    -0.010    27.600     8.551
   303   6 C        2.773     0.264    22.553     7.778
   304   8 O        0.860    -0.490    23.563     6.508
   305   7 N        2.719    -0.200    25.344     7.477
   306   6 C        2.836     0.241    22.974     7.855
   307   7 N        2.667    -0.270    26.995     7.717
   308   7 N        1.841    -0.369    30.475     8.181
   309   6 C        3.095     0.125    25.156     8.220
   310   1 H        0.925     0.077     2.008     2.216
   311   1 H        0.924     0.080     1.981     2.201
   312   1 H        0.924     0.073     2.057     2.243
   313   1 H        0.925     0.063     2.164     2.301
   314   1 H        0.926     0.029     2.600     2.521
   315   1 H        0.805     0.328     0.643     1.260
   316   1 H        0.924     0.097     1.813     2.106
   317   1 H        0.926     0.068     2.111     2.272
   318   1 H        0.860     0.240     0.922     1.504
   319   1 H        0.860     0.247     0.896     1.482
   320   1 H        0.860     0.242     0.914     1.498
   321   1 H        0.805     0.340     0.613     1.230
   322  15 P        3.698     0.774   130.180    20.496
   323   8 O        0.808    -0.592    25.943     6.828
   324   8 O        1.614    -0.397    20.809     6.157
   325   8 O        1.655    -0.370    20.276     6.079
   326   6 C        3.837     0.058    19.582     6.296
   327   6 C        3.797     0.086    19.167     6.234
   328   8 O        1.701    -0.300    18.994     5.884
   329   6 C        3.975     0.104    18.802     6.161
   330   8 O        1.656    -0.329    19.518     5.964
   331   6 C        3.769     0.090    19.129     6.233
   332   8 O        1.654    -0.446    21.764     6.298
   333   6 C        3.724     0.158    18.148     6.083
   334   7 N        2.825    -0.085    22.885     7.105
   335   6 C        3.206     0.113    24.952     8.135
   336   7 N        1.869    -0.312    28.934     7.973
   337   6 C        3.233     0.024    26.620     8.374
   338   6 C        2.899     0.175    24.236     8.072
   339   7 N        2.664    -0.260    26.748     7.681
   340   7 N        1.859    -0.329    29.376     8.033
   341   6 C        2.920     0.147    24.805     8.167
   342   7 N        1.826    -0.325    29.263     8.016
   343   6 C        3.153     0.136    24.768     8.139
   344   1 H        0.925     0.091     1.870     2.139
   345   1 H        0.924     0.094     1.837     2.119
   346   1 H        0.924     0.107     1.718     2.050
   347   1 H        0.924     0.047     2.362     2.404
   348   1 H        0.926     0.053     2.278     2.360
   349   1 H        0.805     0.345     0.599     1.215
   350   1 H        0.924     0.111     1.689     2.032
   351   1 H        0.926     0.059     2.215     2.327
   352   1 H        0.860     0.237     0.936     1.516
   353   1 H        0.860     0.216     1.030     1.590
   354   1 H        0.926     0.058     2.224     2.332
   355  15 P        3.732     0.773   130.221    20.499
   356   8 O        1.614    -0.383    20.545     6.118
   357   8 O        0.808    -0.612    26.443     6.893
   358   8 O        1.656    -0.352    19.949     6.029
   359   6 C        3.859     0.055    19.623     6.300
   360   6 C        3.807     0.089    19.105     6.222
   361   8 O        1.701    -0.305    19.089     5.899
   362   6 C        3.992     0.114    18.655     6.136
   363   8 O        1.657    -0.318    19.319     5.933
   364   6 C        3.756     0.087    19.192     6.246
   365   8 O        1.654    -0.452    21.882     6.315
   366   6 C        3.761     0.154    18.153     6.074
   367   7 N        2.839    -0.079    22.769     7.087
   368   6 C        3.194     0.103    25.248     8.193
   369   7 N        1.876    -0.317    29.067     7.992
   370   6 C        3.237    -0.005    27.251     8.468
   371   6 C        2.770     0.262    22.581     7.783
   372   8 O        0.859    -0.495    23.668     6.523
   373   7 N        2.722    -0.198    25.305     7.471
   374   6 C        2.838     0.244    22.929     7.847
   375   7 N        2.668    -0.262    26.787     7.687
   376   7 N        1.841    -0.360    30.233     8.149
   377   6 C        3.111     0.120    25.214     8.226
   378   1 H        0.925     0.088     1.903     2.157
   379   1 H        0.924     0.096     1.819     2.109
   380   1 H        0.924     0.107     1.719     2.050
   381   1 H        0.924     0.043     2.409     2.427
   382   1 H        0.925     0.048     2.350     2.397
   383   1 H        0.805     0.366     0.551     1.166
   384   1 H        0.925     0.101     1.778     2.085
   385   1 H        0.926     0.042     2.420     2.433
   386   1 H        0.860     0.244     0.908     1.493
   387   1 H        0.860     0.250     0.885     1.474
   388   1 H        0.860     0.242     0.914     1.497
   389  15 P        3.776     0.772   130.260    20.502
   390   8 O        1.614    -0.383    20.546     6.118
   391   8 O        0.808    -0.613    26.469     6.897
   392   8 O        1.657    -0.348    19.872     6.018
   393   6 C        3.897     0.049    19.703     6.310
   394   6 C        3.802     0.082    19.221     6.242
   395   8 O        1.698    -0.309    19.151     5.908
   396   6 C        3.985     0.102    18.829     6.165
   397   8 O        1.658    -0.323    19.424     5.950
   398   6 C        3.775     0.097    19.010     6.212
   399   8 O        1.656    -0.450    21.847     6.310
   400   6 C        3.732     0.161    18.097     6.072
   401   7 N        2.749    -0.106    23.310     7.171
   402   6 C        2.754     0.325    21.472     7.588
   403   8 O        0.861    -0.496    23.704     6.528
   404   7 N        1.856    -0.365    30.356     8.166
   405   6 C        2.882     0.198    23.798     7.997
   406   7 N        2.666    -0.240    26.280     7.614
   407   6 C        2.923    -0.102    30.563     9.066
   408   6 C        2.876     0.034    27.246     8.557
   409   1 H        0.925     0.104     1.751     2.069
   410   1 H        0.924     0.097     1.813     2.106
   411   1 H        0.924     0.114     1.666     2.019
   412   1 H        0.924     0.049     2.334     2.389
   413   1 H        0.926     0.044     2.399     2.422
   414   1 H        0.805     0.340     0.613     1.230
   415   1 H        0.924     0.113     1.670     2.021
   416   1 H        0.860     0.239     0.928     1.509
   417   1 H        0.860     0.233     0.952     1.529
   418   1 H        0.926     0.072     2.061     2.245
   419   1 H        0.927     0.084     1.939     2.177
   420  15 P        3.786     0.794   129.523    20.444
   421   8 O        1.614    -0.393    20.739     6.146
   422   8 O        0.808    -0.615    26.519     6.903
   423   8 O        1.657    -0.353    19.952     6.030
   424   6 C        3.899     0.054    19.624     6.297
   425   6 C        3.810     0.088    19.113     6.223
   426   8 O        1.699    -0.300    19.002     5.885
   427   6 C        4.009     0.113    18.668     6.138
   428   8 O        1.658    -0.305    19.104     5.900
   429   6 C        3.761     0.086    19.201     6.247
   430   8 O        1.654    -0.453    21.910     6.319
   431   6 C        3.734     0.150    18.255     6.098
   432   7 N        2.825    -0.091    23.009     7.124
   433   6 C        3.182     0.110    25.175     8.190
   434   7 N        1.870    -0.306    28.771     7.951
   435   6 C        3.226     0.010    27.026     8.446
   436   6 C        2.908     0.176    24.230     8.071
   437   7 N        2.665    -0.245    26.390     7.630
   438   7 N        1.858    -0.326    29.295     8.022
   439   6 C        2.921     0.142    24.914     8.185
   440   7 N        1.826    -0.327    29.318     8.023
   441   6 C        3.140     0.127    25.005     8.183
   442   1 H        0.925     0.088     1.895     2.153
   443   1 H        0.924     0.091     1.868     2.137
   444   1 H        0.924     0.111     1.691     2.033
   445   1 H        0.924     0.052     2.297     2.370
   446   1 H        0.925     0.055     2.258     2.350
   447   1 H        0.805     0.367     0.550     1.165
   448   1 H        0.925     0.096     1.820     2.109
   449   1 H        0.926     0.045     2.383     2.414
   450   1 H        0.860     0.237     0.936     1.516
   451   1 H        0.860     0.219     1.013     1.576
   452   1 H        0.926     0.055     2.256     2.349
   453  15 P        3.819     0.776   130.108    20.490
   454   8 O        1.614    -0.392    20.715     6.143
   455   8 O        0.808    -0.615    26.516     6.903
   456   8 O        1.658    -0.346    19.838     6.013
   457   6 C        3.918     0.054    19.614     6.294
   458   6 C        3.814     0.088    19.112     6.222
   459   8 O        1.700    -0.305    19.077     5.897
   460   6 C        3.966     0.100    18.872     6.172
   461   8 O        1.657    -0.318    19.329     5.935
   462   6 C        3.767     0.095    19.043     6.219
   463   8 O        1.655    -0.444    21.726     6.292
   464   6 C        3.734     0.162    18.079     6.069
   465   7 N        2.739    -0.105    23.293     7.168
   466   6 C        2.753     0.328    21.429     7.580
   467   8 O        0.861    -0.511    24.032     6.573
   468   7 N        1.862    -0.360    30.224     8.149
   469   6 C        2.880     0.189    23.978     8.028
   470   7 N        2.671    -0.244    26.370     7.627
   471   6 C        2.914    -0.105    30.643     9.077
   472   6 C        2.865     0.037    27.158     8.542
   473   1 H        0.924     0.098     1.804     2.100
   474   1 H        0.925     0.089     1.891     2.151
   475   1 H        0.924     0.104     1.752     2.070
   476   1 H        0.924     0.054     2.270     2.356
   477   1 H        0.925     0.047     2.358     2.402
   478   1 H        0.805     0.344     0.603     1.220
   479   1 H        0.924     0.108     1.710     2.045
   480   1 H        0.860     0.248     0.891     1.478
   481   1 H        0.860     0.235     0.946     1.523
   482   1 H        0.926     0.079     1.990     2.206
   483   1 H        0.926     0.084     1.937     2.176
   484  15 P        3.812     0.790   129.656    20.454
   485   8 O        1.614    -0.392    20.709     6.142
   486   8 O        0.808    -0.602    26.208     6.862
   487   8 O        1.657    -0.362    20.128     6.056
   488   6 C        3.940     0.057    19.558     6.284
   489   6 C        3.799     0.086    19.164     6.233
   490   8 O        1.698    -0.308    19.138     5.906
   491   6 C        4.008     0.115    18.632     6.132
   492   8 O        1.657    -0.312    19.217     5.918
   493   6 C        3.759     0.091    19.119     6.234
   494   8 O        1.654    -0.453    21.912     6.319
   495   6 C        3.740     0.148    18.276     6.100
   496   7 N        2.736    -0.105    23.296     7.168
   497   6 C        2.752     0.328    21.435     7.581
   498   8 O        0.862    -0.511    24.020     6.571
   499   7 N        1.867    -0.362    30.276     8.156
   500   6 C        2.881     0.196    23.827     8.002
   501   7 N        2.675    -0.237    26.207     7.603
   502   6 C        2.910    -0.098    30.469     9.051
   503   6 C        2.860     0.043    27.026     8.521
   504   1 H        0.924     0.083     1.949     2.183
   505   1 H        0.924     0.090     1.877     2.143
   506   1 H        0.924     0.110     1.695     2.036
   507   1 H        0.924     0.050     2.326     2.385
   508   1 H        0.925     0.051     2.305     2.374
   509   1 H        0.805     0.369     0.546     1.161
   510   1 H        0.924     0.107     1.722     2.052
   511   1 H        0.860     0.242     0.914     1.497
   512   1 H        0.860     0.225     0.988     1.557
   513   1 H        0.926     0.076     2.022     2.224
   514   1 H        0.926     0.079     1.993     2.208
   515  15 P        3.813     0.795   129.482    20.441
   516   8 O        1.614    -0.393    20.735     6.146
   517   8 O        0.808    -0.613    26.472     6.897
   518   8 O        1.658    -0.366    20.194     6.066
   519   6 C        3.921     0.052    19.637     6.298
   520   6 C        3.816     0.089    19.101     6.220
   521   8 O        1.700    -0.307    19.108     5.902
   522   6 C        4.015     0.113    18.659     6.136
   523   8 O        1.658    -0.314    19.248     5.923
   524   6 C        3.758     0.090    19.139     6.237
   525   8 O        1.655    -0.450    21.849     6.310
   526   6 C        3.755     0.149    18.235     6.089
   527   7 N        2.851    -0.077    22.733     7.081
   528   6 C        3.189     0.101    25.307     8.206
   529   7 N        1.876    -0.308    28.834     7.960
   530   6 C        3.240     0.010    26.878     8.405
   531   6 C        2.904     0.173    24.280     8.080
   532   7 N        2.660    -0.252    26.543     7.652
   533   7 N        1.855    -0.321    29.178     8.006
   534   6 C        2.944     0.145    24.840     8.174
   535   7 N        1.827    -0.330    29.417     8.037
   536   6 C        3.187     0.132    24.694     8.108
   537   1 H        0.925     0.101     1.780     2.087
   538   1 H        0.924     0.084     1.940     2.178
   539   1 H        0.924     0.107     1.725     2.054
   540   1 H        0.924     0.050     2.320     2.382
   541   1 H        0.925     0.043     2.404     2.425
   542   1 H        0.805     0.363     0.559     1.174
   543   1 H        0.925     0.103     1.758     2.074
   544   1 H        0.926     0.055     2.260     2.351
   545   1 H        0.860     0.244     0.906     1.491
   546   1 H        0.860     0.226     0.985     1.554
   547   1 H        0.926     0.046     2.373     2.409
   548  15 P        3.797     0.774   130.185    20.496
   549   8 O        1.614    -0.384    20.562     6.120
   550   8 O        0.808    -0.603    26.217     6.864
   551   8 O        1.656    -0.355    19.991     6.036
   552   6 C        3.897     0.052    19.651     6.302
   553   6 C        3.765     0.082    19.258     6.255
   554   8 O        1.698    -0.321    19.358     5.940
   555   6 C        3.776     0.089    19.134     6.232
   556   8 O        1.655    -0.463    22.107     6.347
   557   6 C        3.741     0.089    19.177     6.248
   558   8 O        1.654    -0.459    22.038     6.337
   559   6 C        3.738     0.144    18.331     6.109
   560   7 N        2.741    -0.081    22.820     7.095
   561   6 C        2.705     0.324    21.486     7.587
   562   8 O        0.859    -0.469    23.107     6.445
   563   7 N        2.699    -0.182    24.948     7.418
   564   6 C        2.761     0.280    22.266     7.728
   565   8 O        0.859    -0.460    22.918     6.418
   566   6 C        2.906    -0.103    30.587     9.069
   567   6 C        2.847     0.031    27.304     8.564
   568   1 H        0.925     0.100     1.788     2.091
   569   1 H        0.924     0.089     1.887     2.148
   570   1 H        0.924     0.090     1.875     2.141
   571   1 H        0.925     0.066     2.135     2.285
   572   1 H        0.805     0.355     0.576     1.192
   573   1 H        0.924     0.063     2.168     2.303
   574   1 H        0.805     0.350     0.587     1.204
   575   1 H        0.925     0.102     1.765     2.077
   576   1 H        0.860     0.253     0.872     1.463
   577   1 H        0.927     0.095     1.830     2.115
   578   1 H        0.927     0.100     1.783     2.088
   579   1 H        0.895     0.452     0.394     0.983
   580   1 H        0.900     0.450     0.396     0.984
   581   1 H        0.898     0.455     0.389     0.976
   582   1 H        0.897     0.462     0.380     0.965
   583   1 H        0.901     0.465     0.375     0.958
   584   1 H        0.901     0.467     0.373     0.955
   585   1 H        0.896     0.466     0.374     0.957
   586   1 H        0.899     0.464     0.377     0.961
   587   1 H        0.895     0.441     0.410     1.002
   588   1 H        0.897     0.456     0.388     0.975
   589   1 H        0.893     0.462     0.380     0.965
   590   1 H        0.897     0.463     0.378     0.962
   591   1 H        0.895     0.469     0.371     0.953
   592   1 H        0.897     0.466     0.374     0.957
   593   1 H        0.897     0.459     0.384     0.970
   594   1 H        0.887     0.433     0.422     1.017

 Mol. C6AA /au·bohr⁶  :    4598696.074833
 Mol. C8AA /au·bohr⁸  :  114067953.745107
 Mol. α(0) /au        :       3241.904336


Wiberg/Mayer (AO) data.
largest (>0.10) Wiberg bond orders for each atom

 ---------------------------------------------------------------------------
     #   Z sym  total        # sym  WBO       # sym  WBO       # sym  WBO
 ---------------------------------------------------------------------------
     1   8 O    1.912 --     2 C    0.997    30 H    0.862
     2   6 C    3.958 --     1 O    0.997     3 C    0.985    19 H    0.970
                            20 H    0.968
     3   6 C    3.945 --     2 C    0.985     5 C    0.971     4 O    0.965
                            21 H    0.953
     4   8 O    2.082 --     8 C    0.986     3 C    0.965
     5   6 C    3.922 --     7 C    0.992     3 C    0.971    22 H    0.961
                             6 O    0.928
     6   8 O    2.273 --    31 P    1.130     5 C    0.928
     7   6 C    3.989 --     5 C    0.992     8 C    0.975    23 H    0.970
                            24 H    0.970
     8   6 C    3.942 --     4 O    0.986     7 C    0.975     9 N    0.957
                            25 H    0.955
     9   7 N    3.601 --    10 C    1.228    18 C    1.150     8 C    0.957
                            11 N    0.107
    10   6 C    3.951 --    11 N    1.601     9 N    1.228    26 H    0.953
    11   7 N    2.996 --    10 C    1.601    12 C    1.175     9 N    0.107
    12   6 C    3.969 --    18 C    1.331    13 C    1.191    11 N    1.175
    13   6 C    3.971 --    14 N    1.330    15 N    1.309    12 C    1.191
    14   7 N    3.426 --    13 C    1.330    28 H    0.925    27 H    0.903
    15   7 N    3.070 --    16 C    1.400    13 C    1.309
[...]
   327   6 C    3.946 --   326 C    0.985   329 C    0.971   328 O    0.970
                           346 H    0.945
   328   8 O    2.092 --   333 C    0.981   327 C    0.970
   329   6 C    3.930 --   327 C    0.971   347 H    0.960   331 C    0.960
                           330 O    0.943
   330   8 O    2.268 --   355 P    1.109   329 C    0.943
   331   6 C    3.969 --   332 O    1.005   333 C    0.975   329 C    0.960
                           348 H    0.948
   332   8 O    1.944 --   331 C    1.005   349 H    0.852
   333   6 C    3.934 --   328 O    0.981   331 C    0.975   334 N    0.947
                           350 H    0.943
   334   7 N    3.582 --   335 C    1.226   343 C    1.137   333 C    0.947
                           336 N    0.114
   335   6 C    3.957 --   336 N    1.597   334 N    1.226   351 H    0.947
   336   7 N    2.996 --   335 C    1.597   337 C    1.177   334 N    0.114
   337   6 C    3.972 --   343 C    1.340   338 C    1.190   336 N    1.177
   338   6 C    3.971 --   339 N    1.325   340 N    1.313   337 C    1.190
   339   7 N    3.422 --   338 C    1.325   353 H    0.934   352 H    0.889
   340   7 N    3.059 --   341 C    1.395   338 C    1.313
   341   6 C    3.966 --   342 N    1.468   340 N    1.395   354 H    0.956
   342   7 N    3.006 --   341 C    1.468   343 C    1.260
   343   6 C    3.954 --   337 C    1.340   342 N    1.260   334 N    1.137
   344   1 H    0.991 --   326 C    0.961
   345   1 H    0.991 --   326 C    0.964
   346   1 H    0.988 --   327 C    0.945
   347   1 H    0.998 --   329 C    0.960
   348   1 H    0.997 --   331 C    0.948
   349   1 H    0.880 --   332 O    0.852
   350   1 H    0.988 --   333 C    0.943
   351   1 H    0.996 --   335 C    0.947
   352   1 H    0.943 --   339 N    0.889
   353   1 H    0.953 --   339 N    0.934
   354   1 H    0.996 --   341 C    0.956
   355  15 P    5.425 --   357 O    1.742   356 O    1.377   358 O    1.129
                           330 O    1.109
   356   8 O    2.286 --   355 P    1.377   585 H    0.748
   357   8 O    1.947 --   355 P    1.742
   358   8 O    2.254 --   355 P    1.129   359 C    0.928
   359   6 C    3.916 --   360 C    0.987   379 H    0.964   378 H    0.956
                           358 O    0.928
   360   6 C    3.943 --   359 C    0.987   362 C    0.970   361 O    0.967
                           380 H    0.946
   361   8 O    2.091 --   366 C    0.983   360 C    0.967
   362   6 C    3.936 --   360 C    0.970   364 C    0.969   381 H    0.958
                           363 O    0.951
   363   8 O    2.278 --   389 P    1.117   362 C    0.951
   364   6 C    3.972 --   365 O    1.007   362 C    0.969   366 C    0.958
                           382 H    0.951
   365   8 O    1.940 --   364 C    1.007   383 H    0.853
   366   6 C    3.932 --   361 O    0.983   364 C    0.958   367 N    0.950
                           384 H    0.945
   367   7 N    3.590 --   368 C    1.220   377 C    1.149   366 C    0.950
                           369 N    0.111
   368   6 C    3.953 --   369 N    1.594   367 N    1.220   385 H    0.954
   369   7 N    2.999 --   368 C    1.594   370 C    1.191   367 N    0.111
   370   6 C    3.962 --   377 C    1.355   369 N    1.191   371 C    1.128
   371   6 C    3.952 --   372 O    1.579   373 N    1.133   370 C    1.128
   372   8 O    1.953 --   371 C    1.579   373 N    0.134
   373   7 N    3.513 --   374 C    1.175   371 C    1.133   386 H    0.856
                           372 O    0.134
   374   6 C    3.966 --   376 N    1.359   375 N    1.338   373 N    1.175
   375   7 N    3.400 --   374 C    1.338   388 H    0.920   387 H    0.880
                           376 N    0.107
   376   7 N    2.949 --   374 C    1.359   377 C    1.229   375 N    0.107
   377   6 C    3.952 --   370 C    1.355   376 N    1.229   367 N    1.149
   378   1 H    0.992 --   359 C    0.956
   379   1 H    0.991 --   359 C    0.964
   380   1 H    0.987 --   360 C    0.946
   381   1 H    0.998 --   362 C    0.958
   382   1 H    0.997 --   364 C    0.951
   383   1 H    0.866 --   365 O    0.853
   384   1 H    0.990 --   366 C    0.945
   385   1 H    0.997 --   368 C    0.954
   386   1 H    0.940 --   373 N    0.856
   387   1 H    0.937 --   375 N    0.880
   388   1 H    0.940 --   375 N    0.920
   389  15 P    5.426 --   391 O    1.733   390 O    1.379   392 O    1.130
                           363 O    1.117
   390   8 O    2.288 --   389 P    1.379   584 H    0.748
   391   8 O    1.940 --   389 P    1.733
   392   8 O    2.261 --   389 P    1.130   393 C    0.927
   393   6 C    3.910 --   394 C    0.990   410 H    0.963   409 H    0.960
                           392 O    0.927
   394   6 C    3.942 --   393 C    0.990   396 C    0.971   395 O    0.960
                           411 H    0.946
   395   8 O    2.087 --   400 C    0.987   394 C    0.960
   396   6 C    3.930 --   394 C    0.971   398 C    0.965   412 H    0.959
                           397 O    0.946
   397   8 O    2.278 --   420 P    1.114   396 C    0.946
   398   6 C    3.970 --   399 O    1.003   400 C    0.975   396 C    0.965
                           413 H    0.944
   399   8 O    1.940 --   398 C    1.003   414 H    0.838
   400   6 C    3.932 --   395 O    0.987   398 C    0.975   415 H    0.942
                           401 N    0.941
   401   7 N    3.565 --   408 C    1.221   402 C    1.057   400 C    0.941
                           403 O    0.114
   402   6 C    3.953 --   403 O    1.563   404 N    1.238   401 N    1.057
   403   8 O    1.943 --   402 C    1.563   404 N    0.124   401 N    0.114
   404   7 N    3.047 --   405 C    1.348   402 C    1.238   403 O    0.124
                           406 N    0.112
   405   6 C    3.967 --   406 N    1.375   404 N    1.348   407 C    1.153
   406   7 N    3.459 --   405 C    1.375   417 H    0.924   416 H    0.885
                           404 N    0.112
   407   6 C    3.979 --   408 C    1.646   405 C    1.153   418 H    0.962
   408   6 C    3.966 --   407 C    1.646   401 N    1.221   419 H    0.943
   409   1 H    0.989 --   393 C    0.960
   410   1 H    0.991 --   393 C    0.963
   411   1 H    0.986 --   394 C    0.946
   412   1 H    0.998 --   396 C    0.959
   413   1 H    0.998 --   398 C    0.944
   414   1 H    0.884 --   399 O    0.838
   415   1 H    0.986 --   400 C    0.942
   416   1 H    0.942 --   406 N    0.885
   417   1 H    0.945 --   406 N    0.924
   418   1 H    0.994 --   407 C    0.962
   419   1 H    0.992 --   408 C    0.943
   420  15 P    5.413 --   422 O    1.735   421 O    1.367   423 O    1.131
                           397 O    1.114
   421   8 O    2.277 --   420 P    1.367   583 H    0.750
   422   8 O    1.940 --   420 P    1.735
   423   8 O    2.258 --   420 P    1.131   424 C    0.932
   424   6 C    3.917 --   425 C    0.988   443 H    0.962   442 H    0.944
                           423 O    0.932
   425   6 C    3.942 --   424 C    0.988   427 C    0.971   426 O    0.965
                           444 H    0.947
   426   8 O    2.094 --   431 C    0.993   425 C    0.965
   427   6 C    3.934 --   425 C    0.971   429 C    0.969   445 H    0.955
                           428 O    0.952
   428   8 O    2.292 --   453 P    1.133   427 C    0.952
   429   6 C    3.971 --   430 O    1.009   427 C    0.969   431 C    0.958
                           446 H    0.955
   430   8 O    1.936 --   429 C    1.009   447 H    0.852
   431   6 C    3.932 --   426 O    0.993   429 C    0.958   448 H    0.942
                           432 N    0.940
   432   7 N    3.576 --   433 C    1.221   441 C    1.138   431 C    0.940
                           434 N    0.115
   433   6 C    3.961 --   434 N    1.602   432 N    1.221   449 H    0.951
   434   7 N    3.001 --   433 C    1.602   435 C    1.175   432 N    0.115
   435   6 C    3.969 --   441 C    1.348   436 C    1.180   434 N    1.175
   436   6 C    3.970 --   437 N    1.349   438 N    1.302   435 C    1.180
   437   7 N    3.450 --   436 C    1.349   451 H    0.931   450 H    0.889
   438   7 N    3.052 --   439 C    1.415   436 C    1.302
   439   6 C    3.967 --   440 N    1.456   438 N    1.415   452 H    0.957
   440   7 N    2.998 --   439 C    1.456   441 C    1.254
   441   6 C    3.955 --   435 C    1.348   440 N    1.254   432 N    1.138
   442   1 H    0.992 --   424 C    0.944
   443   1 H    0.992 --   424 C    0.962
   444   1 H    0.986 --   425 C    0.947
   445   1 H    0.997 --   427 C    0.955
   446   1 H    0.997 --   429 C    0.955
   447   1 H    0.865 --   430 O    0.852
   448   1 H    0.991 --   431 C    0.942
   449   1 H    0.997 --   433 C    0.951
   450   1 H    0.943 --   437 N    0.889
   451   1 H    0.952 --   437 N    0.931
   452   1 H    0.996 --   439 C    0.957
   453  15 P    5.418 --   455 O    1.728   454 O    1.357   428 O    1.133
                           456 O    1.126
   454   8 O    2.271 --   453 P    1.357   582 H    0.751
   455   8 O    1.938 --   453 P    1.728
   456   8 O    2.261 --   453 P    1.126   457 C    0.934
   457   6 C    3.918 --   458 C    0.990   474 H    0.964   473 H    0.962
                           456 O    0.934
   458   6 C    3.942 --   457 C    0.990   460 C    0.968   459 O    0.964
                           475 H    0.947
   459   8 O    2.092 --   464 C    0.991   458 C    0.964
   460   6 C    3.927 --   458 C    0.968   462 C    0.960   476 H    0.959
                           461 O    0.944
   461   8 O    2.283 --   484 P    1.128   460 C    0.944
   462   6 C    3.970 --   463 O    1.010   464 C    0.970   460 C    0.960
                           477 H    0.954
   463   8 O    1.946 --   462 C    1.010   478 H    0.851
   464   6 C    3.932 --   459 O    0.991   462 C    0.970   479 H    0.944
                           465 N    0.938
   465   7 N    3.567 --   472 C    1.220   466 C    1.065   464 C    0.938
                           467 O    0.111
   466   6 C    3.953 --   467 O    1.549   468 N    1.246   465 N    1.065
   467   8 O    1.936 --   466 C    1.549   468 N    0.122   465 N    0.111
   468   7 N    3.045 --   469 C    1.349   466 C    1.246   467 O    0.122
                           470 N    0.112
   469   6 C    3.970 --   470 N    1.373   468 N    1.349   471 C    1.157
   470   7 N    3.456 --   469 C    1.373   481 H    0.924   480 H    0.883
                           468 N    0.112
   471   6 C    3.976 --   472 C    1.638   469 C    1.157   482 H    0.961
   472   6 C    3.961 --   471 C    1.638   465 N    1.220   483 H    0.952
   473   1 H    0.990 --   457 C    0.962
   474   1 H    0.992 --   457 C    0.964
   475   1 H    0.988 --   458 C    0.947
   476   1 H    0.997 --   460 C    0.959
   477   1 H    0.997 --   462 C    0.954
   478   1 H    0.881 --   463 O    0.851
   479   1 H    0.987 --   464 C    0.944
   480   1 H    0.938 --   470 N    0.883
   481   1 H    0.944 --   470 N    0.924
   482   1 H    0.993 --   471 C    0.961
   483   1 H    0.992 --   472 C    0.952
   484  15 P    5.404 --   486 O    1.744   485 O    1.351   461 O    1.128
                           487 O    1.103
   485   8 O    2.269 --   484 P    1.351   581 H    0.756
   486   8 O    1.954 --   484 P    1.744
   487   8 O    2.238 --   484 P    1.103   488 C    0.935
   488   6 C    3.923 --   489 C    0.991   505 H    0.961   504 H    0.954
                           487 O    0.935
   489   6 C    3.945 --   488 C    0.991   491 C    0.970   490 O    0.965
                           506 H    0.945
   490   8 O    2.085 --   495 C    0.985   489 C    0.965
   491   6 C    3.930 --   493 C    0.972   489 C    0.970   507 H    0.956
                           492 O    0.942
   492   8 O    2.284 --   515 P    1.135   491 C    0.942
   493   6 C    3.970 --   494 O    1.009   491 C    0.972   495 C    0.956
                           508 H    0.953
   494   8 O    1.941 --   493 C    1.009   509 H    0.850
   495   6 C    3.928 --   490 O    0.985   493 C    0.956   510 H    0.945
                           496 N    0.940
   496   7 N    3.561 --   503 C    1.211   497 C    1.066   495 C    0.940
                           498 O    0.113
   497   6 C    3.953 --   498 O    1.548   499 N    1.247   496 N    1.066
   498   8 O    1.928 --   497 C    1.548   499 N    0.121   496 N    0.113
   499   7 N    3.043 --   500 C    1.351   497 C    1.247   498 O    0.121
                           501 N    0.110
   500   6 C    3.967 --   501 N    1.374   499 N    1.351   502 C    1.152
   501   7 N    3.459 --   500 C    1.374   512 H    0.927   511 H    0.884
                           499 N    0.110
   502   6 C    3.977 --   503 C    1.649   500 C    1.152   513 H    0.962
   503   6 C    3.964 --   502 C    1.649   496 N    1.211   514 H    0.953
   504   1 H    0.993 --   488 C    0.954
   505   1 H    0.992 --   488 C    0.961
   506   1 H    0.987 --   489 C    0.945
   507   1 H    0.998 --   491 C    0.956
   508   1 H    0.997 --   493 C    0.953
   509   1 H    0.864 --   494 O    0.850
   510   1 H    0.987 --   495 C    0.945
   511   1 H    0.941 --   501 N    0.884
   512   1 H    0.948 --   501 N    0.927
   513   1 H    0.994 --   502 C    0.962
   514   1 H    0.993 --   503 C    0.953
   515  15 P    5.404 --   517 O    1.732   516 O    1.344   492 O    1.135
                           518 O    1.117
   516   8 O    2.264 --   515 P    1.344   580 H    0.759
   517   8 O    1.946 --   515 P    1.732
   518   8 O    2.246 --   515 P    1.117   519 C    0.929
   519   6 C    3.915 --   520 C    0.990   538 H    0.963   537 H    0.960
                           518 O    0.929
   520   6 C    3.944 --   519 C    0.990   522 C    0.970   521 O    0.965
                           539 H    0.948
   521   8 O    2.086 --   526 C    0.986   520 C    0.965
   522   6 C    3.936 --   524 C    0.971   520 C    0.970   540 H    0.956
                           523 O    0.953
   523   8 O    2.283 --   548 P    1.124   522 C    0.953
   524   6 C    3.972 --   525 O    1.009   522 C    0.971   541 H    0.955
                           526 C    0.954
   525   8 O    1.943 --   524 C    1.009   542 H    0.855
   526   6 C    3.932 --   521 O    0.986   524 C    0.954   527 N    0.952
                           543 H    0.945
   527   7 N    3.596 --   528 C    1.223   536 C    1.151   526 C    0.952
                           529 N    0.112
   528   6 C    3.958 --   529 N    1.595   527 N    1.223   544 H    0.953
   529   7 N    2.996 --   528 C    1.595   530 C    1.179   527 N    0.112
   530   6 C    3.969 --   536 C    1.340   531 C    1.184   529 N    1.179
   531   6 C    3.972 --   532 N    1.347   533 N    1.305   530 C    1.184
   532   7 N    3.440 --   531 C    1.347   546 H    0.930   545 H    0.880
   533   7 N    3.077 --   534 C    1.405   531 C    1.305
   534   6 C    3.969 --   535 N    1.466   533 N    1.405   547 H    0.957
   535   7 N    3.000 --   534 C    1.466   536 C    1.250
   536   6 C    3.956 --   530 C    1.340   535 N    1.250   527 N    1.151
   537   1 H    0.990 --   519 C    0.960
   538   1 H    0.993 --   519 C    0.963
   539   1 H    0.987 --   520 C    0.948
   540   1 H    0.997 --   522 C    0.956
   541   1 H    0.998 --   524 C    0.955
   542   1 H    0.868 --   525 O    0.855
   543   1 H    0.989 --   526 C    0.945
   544   1 H    0.996 --   528 C    0.953
   545   1 H    0.940 --   532 N    0.880
   546   1 H    0.949 --   532 N    0.930
   547   1 H    0.997 --   534 C    0.957
   548  15 P    5.422 --   550 O    1.742   549 O    1.363   523 O    1.124
                           551 O    1.122
   549   8 O    2.281 --   548 P    1.363   579 H    0.755
   550   8 O    1.955 --   548 P    1.742
   551   8 O    2.248 --   548 P    1.122   552 C    0.927
   552   6 C    3.912 --   553 C    0.989   568 H    0.960   569 H    0.959
                           551 O    0.927
   553   6 C    3.940 --   552 C    0.989   555 C    0.969   554 O    0.953
                           570 H    0.949
   554   8 O    2.077 --   559 C    0.989   553 C    0.953
   555   6 C    3.965 --   556 O    1.011   553 C    0.969   557 C    0.960
                           571 H    0.954
   556   8 O    1.946 --   555 C    1.011   572 H    0.857
   557   6 C    3.962 --   558 O    1.007   573 H    0.961   555 C    0.960
                           559 C    0.957
   558   8 O    1.953 --   557 C    1.007   574 H    0.862
   559   6 C    3.925 --   554 O    0.989   557 C    0.957   575 H    0.947
                           560 N    0.936
   560   7 N    3.573 --   567 C    1.195   561 C    1.097   559 C    0.936
                           562 O    0.125
   561   6 C    3.959 --   562 O    1.620   563 N    1.162   560 N    1.097
   562   8 O    1.966 --   561 C    1.620   563 N    0.135   560 N    0.125
   563   7 N    3.531 --   561 C    1.162   564 C    1.141   576 H    0.854
                           565 O    0.140   562 O    0.135
   564   6 C    3.947 --   565 O    1.625   563 N    1.141   566 C    1.106
   565   8 O    1.979 --   564 C    1.625   563 N    0.140
   566   6 C    3.979 --   567 C    1.671   564 C    1.106   577 H    0.962
   567   6 C    3.958 --   566 C    1.671   560 N    1.195   578 H    0.947
   568   1 H    0.990 --   552 C    0.960
   569   1 H    0.992 --   552 C    0.959
   570   1 H    0.991 --   553 C    0.949
   571   1 H    0.996 --   555 C    0.954
   572   1 H    0.874 --   556 O    0.857
   573   1 H    0.996 --   557 C    0.961
   574   1 H    0.877 --   558 O    0.862
   575   1 H    0.989 --   559 C    0.947
   576   1 H    0.936 --   563 N    0.854
   577   1 H    0.990 --   566 C    0.962
   578   1 H    0.990 --   567 C    0.947
   579   1 H    0.796 --   549 O    0.755
   580   1 H    0.797 --   516 O    0.759
   581   1 H    0.792 --   485 O    0.756
   582   1 H    0.786 --   454 O    0.751
   583   1 H    0.783 --   421 O    0.750
   584   1 H    0.782 --   390 O    0.748
   585   1 H    0.782 --   356 O    0.748
   586   1 H    0.785 --   324 O    0.750
   587   1 H    0.806 --   261 O    0.762
   588   1 H    0.792 --   228 O    0.754
   589   1 H    0.787 --   198 O    0.749
   590   1 H    0.785 --   130 O    0.747
   591   1 H    0.780 --    97 O    0.743
   592   1 H    0.783 --    64 O    0.745
   593   1 H    0.789 --    32 O    0.752
   594   1 H    0.812 --   182 O    0.768
 ---------------------------------------------------------------------------

Topologies differ in total number of bonds
Writing topology from bond orders to xtbtopo.mol

molecular dipole:
                 x           y           z       tot (Debye)
 q only:       -0.038      14.919       3.489
   full:        1.259      15.741       2.329      40.573
molecular quadrupole (traceless):
                xx          xy          yy          xz          yz          zz
 q only:     -585.357     810.873     848.776     624.960    1549.277    -263.420
  q+dip:     -429.267     936.012     924.147     663.967    1529.348    -494.880
   full:     -412.793     954.207     921.014     655.403    1522.992    -508.221


           -------------------------------------------------
          | TOTAL ENERGY            -1186.127530438378 Eh   |
          | GRADIENT NORM               0.621553035126 Eh/α |
          | HOMO-LUMO GAP               2.242108702667 eV   |
           -------------------------------------------------

------------------------------------------------------------------------
 * finished run on 2023/03/09 at 13:52:21.380     
------------------------------------------------------------------------
 total:
 * wall-time:     0 d,  0 h,  0 min,  6.656 sec
 *  cpu-time:     0 d,  0 h,  1 min,  3.133 sec
 * ratio c/w:     9.486 speedup
 SCF:
 * wall-time:     0 d,  0 h,  0 min,  5.963 sec
 *  cpu-time:     0 d,  0 h,  0 min, 56.911 sec
 * ratio c/w:     9.544 speedup

