      -----------------------------------------------------------      
     |                   =====================                   |     
     |                           x T B                           |     
     |                   =====================                   |     
     |                         S. Grimme                         |     
     |          Mulliken Center for Theoretical Chemistry        |     
     |                    University of Bonn                     |     
      -----------------------------------------------------------      

   * xtb version 6.5.1 (579679a) compiled by 'ehlert@majestix' on 2022-07-11

   xtb is free software: you can redistribute it and/or modify it under
   the terms of the GNU Lesser General Public License as published by
   the Free Software Foundation, either version 3 of the License, or
   (at your option) any later version.
   
   xtb is distributed in the hope that it will be useful,
   but WITHOUT ANY WARRANTY; without even the implied warranty of
   MERCHANTABILITY or FITNESS FOR A PARTICULAR PURPOSE.  See the
   GNU Lesser General Public License for more details.
   
   Cite this work as:
   * C. Bannwarth, E. Caldeweyher, S. Ehlert, A. Hansen, P. Pracht,
     J. Seibert, S. Spicher, S. Grimme, WIREs Comput. Mol. Sci., 2020, 11,
     e01493. DOI: 10.1002/wcms.1493
   
   for GFN2-xTB:
   * C. Bannwarth, S. Ehlert and S. Grimme., J. Chem. Theory Comput., 2019,
     15, 1652-1671. DOI: 10.1021/acs.jctc.8b01176
   for GFN1-xTB:
   * S. Grimme, C. Bannwarth, P. Shushkov, J. Chem. Theory Comput., 2017,
     13, 1989-2009. DOI: 10.1021/acs.jctc.7b00118
   for GFN0-xTB:
   * P. Pracht, E. Caldeweyher, S. Ehlert, S. Grimme, ChemRxiv, 2019, preprint.
     DOI: 10.26434/chemrxiv.8326202.v1
   for GFN-FF:
   * S. Spicher and S. Grimme, Angew. Chem. Int. Ed., 2020, 59, 15665-15673.
     DOI: 10.1002/anie.202004239
   
   for ALPB and GBSA implicit solvation:
   * S. Ehlert, M. Stahn, S. Spicher, S. Grimme, J. Chem. Theory Comput.,
     2021, 17, 4250-4261. DOI: 10.1021/acs.jctc.1c00471
   
   for DFT-D4:
   * E. Caldeweyher, C. Bannwarth and S. Grimme, J. Chem. Phys., 2017,
     147, 034112. DOI: 10.1063/1.4993215
   * E. Caldeweyher, S. Ehlert, A. Hansen, H. Neugebauer, S. Spicher,
     C. Bannwarth and S. Grimme, J. Chem. Phys., 2019, 150, 154122.
     DOI: 10.1063/1.5090222
   * E. Caldeweyher, J.-M. Mewes, S. Ehlert and S. Grimme, Phys. Chem. Chem. Phys.
     2020, 22, 8499-8512. DOI: 10.1039/D0CP00502A
   
   for sTDA-xTB:
   * S. Grimme and C. Bannwarth, J. Chem. Phys., 2016, 145, 054103.
     DOI: 10.1063/1.4959605
   
   in the mass-spec context:
   * V. Asgeirsson, C. Bauer and S. Grimme, Chem. Sci., 2017, 8, 4879.
     DOI: 10.1039/c7sc00601b
   * J. Koopman and S. Grimme, ACS Omega 2019, 4, 12, 15120-15133.
     DOI: 10.1021/acsomega.9b02011
   
   for metadynamics refer to:
   * S. Grimme, J. Chem. Theory Comput., 2019, 155, 2847-2862
     DOI: 10.1021/acs.jctc.9b00143
   
   for SPH calculations refer to:
   * S. Spicher and S. Grimme, J. Chem. Theory Comput., 2021, 17, 1701-1714
     DOI: 10.1021/acs.jctc.0c01306
   
   with help from (in alphabetical order)
   P. Atkinson, C. Bannwarth, F. Bohle, G. Brandenburg, E. Caldeweyher
   M. Checinski, S. Dohm, S. Ehlert, S. Ehrlich, I. Gerasimov, C. Hölzer
   A. Katbashev, J. Koopman, C. Lavigne, S. Lehtola, F. März, M. Müller,
   F. Musil, H. Neugebauer, J. Pisarek, C. Plett, P. Pracht, F. Pultar,
   J. Seibert, P. Shushkov, S. Spicher, M. Stahn, M. Steiner, T. Strunk,
   J. Stückrath, T. Rose, and J. Unsleber
   
 * started run on 2023/03/09 at 13:52:19.250     

           -------------------------------------------------
          |                Calculation Setup                |
           -------------------------------------------------

          program call               : /N/u/schandy/BigRed3/bin/xtb-6.5.1/bin/xtb 2lib.xyz --gbsa water
          hostname                   : nid00064
          coordinate file            : 2lib.xyz
          omp threads                :                    10

   ID    Z sym.   atoms
    1    8 O      1, 4, 6, 14, 33-35, 38, 40, 45, 48, 65-67, 70, 72, 77,
                  95-97, 100, 102, 107, 135-137, 140, 142, 157-159, 162, 164,
                  172, 190-192, 195, 197, 205, 223-225, 228, 230, 255-257,
                  260, 262, 267, 285-287, 290, 292, 300, 318, 321, 323, 328,
                  347-349, 352, 354, 362, 380-382, 385, 387, 392, 395,
                  412-414, 417, 419, 424, 442-444, 447, 449, 454, 472-474,
                  477, 479, 484, 487, 504-506, 509, 511, 519, 537-539, 542,
                  544, 552, 570-572, 575, 577, 602-604, 607, 609, 614
    2    6 C      2, 3, 5, 7, 8, 10, 12, 13, 16, 19, 36, 37, 39, 41, 42, 44,
                  47, 49-51, 68, 69, 71, 73, 74, 76, 79, 81, 82, 98, 99, 101,
                  103, 104, 106, 109, 111, 112, 124, 126, 127, 130, 132, 138,
                  139, 141, 143, 144, 160, 161, 163, 165, 166, 168, 170, 171,
                  174, 177, 193, 194, 196, 198, 199, 201, 203, 204, 207, 210,
                  226, 227, 229, 231, 232, 234, 236, 237, 240, 242, 258, 259,
                  261, 263, 264, 266, 269, 271, 272, 288, 289, 291, 293, 294,
                  296, 298, 299, 302, 305, 319, 320, 322, 324, 325, 327, 330,
                  332, 333, 350, 351, 353, 355, 356, 358, 360, 361, 364, 367,
                  383, 384, 386, 388, 389, 391, 394, 396-398, 415, 416, 418,
                  420, 421, 423, 426, 428, 429, 445, 446, 448, 450, 451, 453,
                  456, 458, 459, 475, 476, 478, 480, 481, 483, 486, 488-490,
                  507, 508, 510, 512, 513, 515, 517, 518, 521, 524, 540, 541,
                  543, 545, 546, 548, 550, 551, 554, 557, 573, 574, 576, 578,
                  579, 581, 583, 584, 587, 589, 605, 606, 608, 610, 611, 613,
                  616, 618, 619
    3    7 N      9, 11, 15, 17, 18, 43, 46, 75, 78, 80, 105, 108, 110, 125,
                  128, 129, 131, 133, 167, 169, 173, 175, 176, 200, 202, 206,
                  208, 209, 233, 235, 238, 239, 241, 265, 268, 270, 295, 297,
                  301, 303, 304, 326, 329, 331, 357, 359, 363, 365, 366, 390,
                  393, 422, 425, 427, 452, 455, 457, 482, 485, 514, 516, 520,
                  522, 523, 547, 549, 553, 555, 556, 580, 582, 585, 586, 588,
                  612, 615, 617
    4    1 H      20-31, 52-63, 83-93, 113-123, 145-155, 178-188, 211-221,
                  243-253, 273-283, 306-317, 334-345, 368-378, 399-410,
                  430-440, 460-470, 491-502, 525-535, 558-568, 590-600,
                  620-649
    5   15 P      32, 64, 94, 134, 156, 189, 222, 254, 284, 346, 379, 411,
                  441, 471, 503, 536, 569, 601

molecular fragmentation (1/2 indicates fragments):
111111111111111111111111111111111111111111111111111111111111111111111111
111111111111111111111111111111111111111111111111111111111111111111111111
111111111111111111111111111111111111111111111111111111111111111111111111
111111111111111111111111111111111111111111111111111111111111111111111111
111111111111111111111111111112222222222222222222222222222222222222222222
222222222222222222222222222222222222222222222222222222222222222222222222
222222222222222222222222222222222222222222222222222222222222222222222222
222222222222222222222222222222222222222222222222222222222222222222222222
222222222222222222222222222222222222222222222222222222222222222211111111
1
# atoms in fragment 1/2:   326   323
 fragment masses (1/2) :     3053.01     3003.98
CMA distance (Bohr)    :   2.783
constraining FC (au)   :  0.0500

           -------------------------------------------------
          |                 G F N 2 - x T B                 |
           -------------------------------------------------

        Reference                      10.1021/acs.jctc.8b01176
      * Hamiltonian:
        H0-scaling (s, p, d)           1.850000    2.230000    2.230000
        zeta-weighting                 0.500000
      * Dispersion:
        s8                             2.700000
        a1                             0.520000
        a2                             5.000000
        s9                             5.000000
      * Repulsion:
        kExp                           1.500000    1.000000
        rExp                           1.000000
      * Coulomb:
        alpha                          2.000000
        third order                    shell-resolved
        anisotropic                    true
        a3                             3.000000
        a5                             4.000000
        cn-shift                       1.200000
        cn-exp                         4.000000
        max-rad                        5.000000

      * Solvation model:               GBSA
        Solvent                        water
        Parameter file                 internal GFN2-xTB/GBSA
        Dielectric constant                8.0200E+01
        Reference state                gsolv [1 M gas/solution]
        Free energy shift                  1.8574E-03 Eh       1.1656E+00 kcal/mol
        Temperature                        2.9815E+02 K
        Density                            1.0000E+00 kg/L
        Solvent mass                       1.8000E+01 g/mol
        Interaction kernel             Still
        Born radius scaling (c1)           1.5524E+00
        Born radii integrator          GBOBC
        Born offset                        2.4628E-02 a0       4.6540E-02 AA
        H-bond correction              true
        Ion screening                  false
        Surface tension                    1.0000E-05 Eh       1.5569E+01 dyn/cm
        Grid points                               230 per atom

          ...................................................
          :                      SETUP                      :
          :.................................................:
          :  # basis functions                1969          :
          :  # atomic orbitals                1951          :
          :  # shells                         1071          :
          :  # electrons                      2188          :
          :  max. iterations                   250          :
          :  Hamiltonian                  GFN2-xTB          :
          :  restarted?                      false          :
          :  GBSA solvation                   true          :
          :  PC potential                    false          :
          :  electronic temp.          300.0000000     K    :
          :  accuracy                    1.0000000          :
          :  -> integral cutoff          0.2500000E+02      :
          :  -> integral neglect         0.1000000E-07      :
          :  -> SCF convergence          0.1000000E-05 Eh   :
          :  -> wf. convergence          0.1000000E-03 e    :
          :  Broyden damping             0.4000000          :
          ...................................................

 iter      E             dE          RMSdq      gap      omega  full diag
   1  -1293.7867396 -0.129379E+04  0.586E+00    2.49       0.0  T
   2  -1296.8007066 -0.301397E+01  0.342E+00    2.03       1.0  T
   3  -1296.8865568 -0.858503E-01  0.157E+00    2.84       1.0  T
   4  -1297.2992575 -0.412701E+00  0.705E-01    2.36       1.0  T
   5  -1297.4497082 -0.150451E+00  0.311E-01    2.46       1.0  T
   6  -1297.4627776 -0.130694E-01  0.135E-01    2.51       1.0  T
   7  -1297.4669119 -0.413432E-02  0.670E-02    2.50       1.0  T
   8  -1297.4674388 -0.526845E-03  0.392E-02    2.49       1.0  T
   9  -1297.4676718 -0.232992E-03  0.166E-02    2.50       1.0  T
  10  -1297.4677229 -0.511311E-04  0.599E-03    2.50       1.0  T
  11  -1297.4677277 -0.477267E-05  0.332E-03    2.50       1.2  T
  12  -1297.4677299 -0.221479E-05  0.120E-03    2.50       3.3  T
  13  -1297.4677301 -0.225598E-06  0.589E-04    2.50       6.7  T
  14  -1297.4677302 -0.344385E-07  0.299E-04    2.50      13.1  T

   *** convergence criteria satisfied after 14 iterations ***

         #    Occupation            Energy/Eh            Energy/eV
      -------------------------------------------------------------
         1        2.0000           -0.7797090             -21.2170
       ...           ...                  ...                  ...
      1088        2.0000           -0.3788400             -10.3088
      1089        2.0000           -0.3767293             -10.2513
      1090        2.0000           -0.3766072             -10.2480
      1091        2.0000           -0.3749159             -10.2020
      1092        2.0000           -0.3748551             -10.2003
      1093        2.0000           -0.3746338             -10.1943
      1094        2.0000           -0.3736069             -10.1664 (HOMO)
      1095                         -0.2817636              -7.6672 (LUMO)
      1096                         -0.2815924              -7.6625
      1097                         -0.2785231              -7.5790
      1098                         -0.2778433              -7.5605
      1099                         -0.2764999              -7.5239
       ...                                ...                  ...
      1951                          1.3546361              36.8615
      -------------------------------------------------------------
                  HL-Gap            0.0918434 Eh            2.4992 eV
             Fermi-level           -0.3276853 Eh           -8.9168 eV

 SCC (total)                   0 d,  0 h,  0 min,  8.969 sec
 SCC setup                      ...        0 min,  0.060 sec (  0.665%)
 Dispersion                     ...        0 min,  0.197 sec (  2.193%)
 classical contributions        ...        0 min,  0.003 sec (  0.034%)
 integral evaluation            ...        0 min,  0.447 sec (  4.987%)
 iterations                     ...        0 min,  6.625 sec ( 73.866%)
 molecular gradient             ...        0 min,  1.574 sec ( 17.554%)
 printout                       ...        0 min,  0.063 sec (  0.701%)

         :::::::::::::::::::::::::::::::::::::::::::::::::::::
         ::                     SUMMARY                     ::
         :::::::::::::::::::::::::::::::::::::::::::::::::::::
         :: total energy           -1285.074375099040 Eh    ::
         :: total w/o Gsasa/hb     -1284.853335929771 Eh    ::
         :: gradient norm              0.672019913426 Eh/a0 ::
         :: HOMO-LUMO gap              2.499185744913 eV    ::
         ::.................................................::
         :: SCC energy             -1297.467730157908 Eh    ::
         :: -> isotropic ES            4.382015209888 Eh    ::
         :: -> anisotropic ES         -0.252978128803 Eh    ::
         :: -> anisotropic XC          0.236532834286 Eh    ::
         :: -> dispersion             -1.110879336295 Eh    ::
         :: -> Gsolv                  -0.726042879529 Eh    ::
         ::    -> Gelec               -0.505003710261 Eh    ::
         ::    -> Gsasa               -0.016472068960 Eh    ::
         ::    -> Ghb                 -0.206424543435 Eh    ::
         ::    -> Gshift               0.001857443127 Eh    ::
         :: repulsion energy          12.299798941798 Eh    ::
         :: add. restraining           0.000000000000 Eh    ::
         :: total charge              -0.000000000000 e     ::
         :::::::::::::::::::::::::::::::::::::::::::::::::::::

           -------------------------------------------------
          |                Property Printout                |
           -------------------------------------------------

    * Orbital Energies and Occupations

         #    Occupation            Energy/Eh            Energy/eV
      -------------------------------------------------------------
         1        2.0000           -0.7797090             -21.2170
       ...           ...                  ...                  ...
      1082        2.0000           -0.3879117             -10.5556
      1083        2.0000           -0.3867912             -10.5251
      1084        2.0000           -0.3867736             -10.5246
      1085        2.0000           -0.3848251             -10.4716
      1086        2.0000           -0.3832013             -10.4274
      1087        2.0000           -0.3813529             -10.3771
      1088        2.0000           -0.3788400             -10.3088
      1089        2.0000           -0.3767293             -10.2513
      1090        2.0000           -0.3766072             -10.2480
      1091        2.0000           -0.3749159             -10.2020
      1092        2.0000           -0.3748551             -10.2003
      1093        2.0000           -0.3746338             -10.1943
      1094        2.0000           -0.3736069             -10.1664 (HOMO)
      1095                         -0.2817636              -7.6672 (LUMO)
      1096                         -0.2815924              -7.6625
      1097                         -0.2785231              -7.5790
      1098                         -0.2778433              -7.5605
      1099                         -0.2764999              -7.5239
      1100                         -0.2761371              -7.5141
      1101                         -0.2753649              -7.4931
      1102                         -0.2747725              -7.4769
      1103                         -0.2703986              -7.3579
      1104                         -0.2660889              -7.2406
      1105                         -0.2652542              -7.2179
       ...                                ...                  ...
      1951                          1.3546361              36.8615
      -------------------------------------------------------------
                  HL-Gap            0.0918434 Eh            2.4992 eV
             Fermi-level           -0.3276853 Eh           -8.9168 eV

 * generalized Born model for continuum solvation

     #   Z     Born rad/Å   SASA/Å²    H-bond
     1   8 O        2.241    15.754    -0.002
     2   6 C        2.696     1.636    -0.000
     3   6 C        3.151     0.142    -0.000
     4   8 O        2.797     7.281    -0.001
     5   6 C        3.213     0.035    -0.000
     6   8 O        2.629     4.198    -0.001
     7   6 C        3.218     0.378    -0.000
     8   6 C        3.392     0.823    -0.000
     9   7 N        3.481     1.179    -0.000
    10   6 C        2.995     6.837    -0.000
    11   7 N        2.683    15.889    -0.005
    12   6 C        3.702     3.422    -0.000
    13   6 C        3.306     4.198    -0.000
    14   8 O        2.489    12.389    -0.002
    15   7 N        3.339     1.935    -0.001
    16   6 C        3.624     3.970    -0.000
    17   7 N        2.665     4.982    -0.001
    18   7 N        3.067     5.850    -0.002
    19   6 C        3.939     3.378    -0.000
    20   1 H        2.053    18.615    -0.025
    21   1 H        2.058    18.346    -0.025
    22   1 H        2.198    13.887    -0.019
    23   1 H        2.212     8.226    -0.011
    24   1 H        2.312     5.828    -0.008
    25   1 H        2.393     0.147    -0.000
    26   1 H        2.341    11.333    -0.015
    27   1 H        2.144    15.031    -0.020
    28   1 H        3.073     0.670    -0.001
    29   1 H        2.493     4.270    -0.006
    30   1 H        2.213    17.022    -0.023
    31   1 H        1.952    15.870    -0.021
    32  15 P        3.193     7.786    -0.001
    33   8 O        2.226    11.721    -0.002
    34   8 O        2.188    24.666    -0.003
    35   8 O        2.628     2.512    -0.000
    36   6 C        2.862     0.487    -0.000
    37   6 C        3.273     0.147    -0.000
    38   8 O        3.012     1.799    -0.000
    39   6 C        3.309     0.155    -0.000
    40   8 O        2.639     4.597    -0.001
    41   6 C        3.365     0.028    -0.000
    42   6 C        3.656     0.010    -0.000
    43   7 N        3.759     0.000     0.000
    44   6 C        3.676     0.003    -0.000
    45   8 O        2.597     7.994    -0.001
    46   7 N        3.442     0.000    -0.000
    47   6 C        3.603     0.000    -0.000
    48   8 O        2.648     7.063    -0.001
    49   6 C        3.776     0.027    -0.000
    50   6 C        2.745     2.690    -0.000
    51   6 C        3.489     0.175    -0.000
    52   1 H        2.182    11.268    -0.015
    53   1 H        2.142    13.481    -0.018
    54   1 H        2.236    14.278    -0.019
    55   1 H        2.296     7.207    -0.010
    56   1 H        2.416     4.929    -0.007
    57   1 H        2.500     0.035    -0.000
    58   1 H        2.447     8.241    -0.011
    59   1 H        3.197     0.000    -0.000
    60   1 H        2.157    12.449    -0.017
    61   1 H        2.152    12.936    -0.017
    62   1 H        2.177    10.127    -0.014
    63   1 H        2.384     4.026    -0.005
    64  15 P        3.222     6.877    -0.001
    65   8 O        2.220    11.478    -0.002
    66   8 O        2.218    22.545    -0.003
    67   8 O        2.624     2.319    -0.000
    68   6 C        2.846     0.436    -0.000
    69   6 C        3.242     0.183    -0.000
    70   8 O        2.971     5.641    -0.001
    71   6 C        3.260     0.231    -0.000
    72   8 O        2.641     4.135    -0.001
    73   6 C        3.321     0.144    -0.000
    74   6 C        3.595     0.482    -0.000
    75   7 N        3.670     0.095    -0.000
    76   6 C        3.615     0.409    -0.000
    77   8 O        2.726     6.570    -0.001
    78   7 N        3.619     0.000    -0.000
    79   6 C        3.855     0.116    -0.000
    80   7 N        2.773     1.667    -0.001
    81   6 C        3.368     2.671    -0.000
    82   6 C        3.405     1.403    -0.000
    83   1 H        2.166    12.757    -0.017
    84   1 H        2.122    14.632    -0.020
    85   1 H        2.205    15.167    -0.020
    86   1 H        2.233     9.872    -0.013
    87   1 H        2.372     8.066    -0.011
    88   1 H        2.484     0.315    -0.000
    89   1 H        2.406     8.317    -0.011
    90   1 H        2.646     2.144    -0.003
    91   1 H        2.274    11.419    -0.015
    92   1 H        2.206    12.640    -0.017
    93   1 H        2.384     4.673    -0.006
    94  15 P        3.230     6.220    -0.001
    95   8 O        2.223    11.481    -0.002
    96   8 O        2.223    22.263    -0.003
    97   8 O        2.639     1.386    -0.000
    98   6 C        2.850     0.405    -0.000
    99   6 C        3.236     0.219    -0.000
   100   8 O        2.935     8.637    -0.001
   101   6 C        3.263     0.357    -0.000
   102   8 O        2.645     4.518    -0.001
   103   6 C        3.280     0.807    -0.000
   104   6 C        3.624     0.331    -0.000
   105   7 N        3.637     0.344    -0.000
   106   6 C        3.631     0.866    -0.000
   107   8 O        2.759     5.464    -0.001
   108   7 N        3.692     0.000    -0.000
   109   6 C        3.888     0.697    -0.000
   110   7 N        2.819     0.476    -0.000
   111   6 C        3.403     4.330    -0.000
   112   6 C        3.396     3.214    -0.000
   113   1 H        2.162    12.277    -0.016
   114   1 H        2.133    13.466    -0.018
   115   1 H        2.191    15.738    -0.021
   116   1 H        2.220     9.896    -0.013
   117   1 H        2.347    10.038    -0.013
   118   1 H        2.380     2.228    -0.003
   119   1 H        2.465     5.834    -0.008
   120   1 H        2.778     0.532    -0.001
   121   1 H        2.319    12.523    -0.017
   122   1 H        2.263     9.155    -0.012
   123   1 H        2.438     2.506    -0.003
   124   6 C        3.459     1.353    -0.000
   125   7 N        4.095     0.001    -0.000
   126   6 C        4.753     0.038    -0.000
   127   6 C        4.940     0.000    -0.000
   128   7 N        3.074     6.081    -0.002
   129   7 N        3.198     6.295    -0.002
   130   6 C        3.513     0.488    -0.000
   131   7 N        3.828     0.000    -0.000
   132   6 C        4.536     0.000    -0.000
   133   7 N        2.938     0.217    -0.000
   134  15 P        3.208     7.033    -0.001
   135   8 O        2.223    11.131    -0.002
   136   8 O        2.200    23.910    -0.003
   137   8 O        2.632     2.348    -0.000
   138   6 C        2.865     0.452    -0.000
   139   6 C        3.353     0.183    -0.000
   140   8 O        3.107     2.179    -0.000
   141   6 C        3.351     0.252    -0.000
   142   8 O        2.791     1.945    -0.000
   143   6 C        3.254     1.102    -0.000
   144   6 C        3.720     0.081    -0.000
   145   1 H        2.445     5.402    -0.007
   146   1 H        2.423     7.411    -0.010
   147   1 H        2.389    11.501    -0.015
   148   1 H        2.841     0.937    -0.001
   149   1 H        2.183    11.452    -0.015
   150   1 H        2.118    15.699    -0.021
   151   1 H        2.259    12.590    -0.017
   152   1 H        2.240     9.795    -0.013
   153   1 H        2.248    12.896    -0.017
   154   1 H        2.351     5.239    -0.007
   155   1 H        2.548     4.243    -0.006
   156  15 P        3.280     5.565    -0.001
   157   8 O        2.246    10.670    -0.001
   158   8 O        2.235    21.300    -0.003
   159   8 O        2.737     0.254    -0.000
   160   6 C        2.961     0.433    -0.000
   161   6 C        3.333     0.292    -0.000
   162   8 O        3.120     3.371    -0.000
   163   6 C        3.340     0.340    -0.000
   164   8 O        2.683     4.283    -0.001
   165   6 C        3.350     0.523    -0.000
   166   6 C        3.738     0.170    -0.000
   167   7 N        4.086     0.005    -0.000
   168   6 C        3.428     3.037    -0.000
   169   7 N        2.983    11.881    -0.004
   170   6 C        4.453     0.616    -0.000
   171   6 C        3.785     0.217    -0.000
   172   8 O        2.661     9.445    -0.001
   173   7 N        3.869     0.000    -0.000
   174   6 C        4.222     0.056    -0.000
   175   7 N        2.924     0.226    -0.000
   176   7 N        3.395     3.180    -0.001
   177   6 C        4.713     0.009    -0.000
   178   1 H        2.294     6.429    -0.009
   179   1 H        2.180    12.311    -0.016
   180   1 H        2.204    16.417    -0.022
   181   1 H        2.249     9.616    -0.013
   182   1 H        2.396     8.936    -0.012
   183   1 H        2.387     1.289    -0.002
   184   1 H        2.503     5.058    -0.007
   185   1 H        2.418     3.091    -0.004
   186   1 H        3.553     0.002    -0.000
   187   1 H        2.798     0.985    -0.001
   188   1 H        2.319    17.522    -0.023
   189  15 P        3.238     7.342    -0.001
   190   8 O        2.230    11.119    -0.002
   191   8 O        2.216    23.292    -0.003
   192   8 O        2.686     0.934    -0.000
   193   6 C        2.902     0.478    -0.000
   194   6 C        3.344     0.189    -0.000
   195   8 O        3.076     3.326    -0.000
   196   6 C        3.372     0.045    -0.000
   197   8 O        2.803     0.409    -0.000
   198   6 C        3.318     0.955    -0.000
   199   6 C        3.803     0.111    -0.000
   200   7 N        4.021     0.008    -0.000
   201   6 C        3.292     3.950    -0.000
   202   7 N        2.924    12.303    -0.004
   203   6 C        4.453     0.117    -0.000
   204   6 C        3.827     0.104    -0.000
   205   8 O        2.693     8.267    -0.001
   206   7 N        3.881     0.001    -0.000
   207   6 C        4.310     0.005    -0.000
   208   7 N        2.909     0.190    -0.000
   209   7 N        3.529     2.631    -0.001
   210   6 C        4.833     0.007    -0.000
   211   1 H        2.204    10.440    -0.014
   212   1 H        2.154    13.361    -0.018
   213   1 H        2.237    14.949    -0.020
   214   1 H        2.244     9.478    -0.013
   215   1 H        2.340     8.543    -0.011
   216   1 H        2.378     5.113    -0.007
   217   1 H        2.654     4.378    -0.006
   218   1 H        2.293     9.657    -0.013
   219   1 H        3.447     0.002    -0.000
   220   1 H        2.657     2.155    -0.003
   221   1 H        2.344    16.854    -0.023
   222  15 P        3.275     6.475    -0.001
   223   8 O        2.243    11.706    -0.002
   224   8 O        2.237    21.111    -0.003
   225   8 O        2.698     1.532    -0.000
   226   6 C        2.894     0.462    -0.000
   227   6 C        3.281     0.266    -0.000
   228   8 O        2.961     9.048    -0.001
   229   6 C        3.311     0.295    -0.000
   230   8 O        2.655     4.700    -0.001
   231   6 C        3.425     0.345    -0.000
   232   6 C        3.662     0.390    -0.000
   233   7 N        4.066     0.270    -0.000
   234   6 C        3.483     0.643    -0.000
   235   7 N        3.136     4.055    -0.001
   236   6 C        4.947     0.000    -0.000
   237   6 C        4.457     0.000     0.000
   238   7 N        2.930     0.057    -0.000
   239   7 N        3.748     0.002    -0.000
   240   6 C        3.419     0.572    -0.000
   241   7 N        3.130     5.807    -0.002
   242   6 C        4.698     0.132    -0.000
   243   1 H        2.190    12.129    -0.016
   244   1 H        2.132    14.691    -0.020
   245   1 H        2.189    16.039    -0.021
   246   1 H        2.264     8.770    -0.012
   247   1 H        2.476     4.874    -0.007
   248   1 H        2.550     0.413    -0.001
   249   1 H        2.459     6.824    -0.009
   250   1 H        2.455     2.334    -0.003
   251   1 H        2.835     0.868    -0.001
   252   1 H        2.388     9.514    -0.013
   253   1 H        2.382     9.327    -0.012
   254  15 P        3.205    10.121    -0.001
   255   8 O        2.213    15.107    -0.002
   256   8 O        2.195    24.144    -0.003
   257   8 O        2.617     4.581    -0.001
   258   6 C        2.890     0.362    -0.000
   259   6 C        3.350     0.040    -0.000
   260   8 O        3.241     0.692    -0.000
   261   6 C        3.280     0.118    -0.000
   262   8 O        2.630     5.448    -0.001
   263   6 C        3.305     0.556    -0.000
   264   6 C        3.745     0.035    -0.000
   265   7 N        3.806     0.001    -0.000
   266   6 C        3.747     0.011    -0.000
   267   8 O        2.831     3.421    -0.000
   268   7 N        3.658     0.000    -0.000
   269   6 C        3.793     0.305    -0.000
   270   7 N        2.675     1.039    -0.000
   271   6 C        3.332     2.428    -0.000
   272   6 C        3.421     1.536    -0.000
   273   1 H        2.238     8.582    -0.011
   274   1 H        2.143    12.975    -0.017
   275   1 H        2.292    13.348    -0.018
   276   1 H        2.225     9.499    -0.013
   277   1 H        2.343     9.044    -0.012
   278   1 H        2.404     0.981    -0.001
   279   1 H        2.494     6.030    -0.008
   280   1 H        2.490     3.666    -0.005
   281   1 H        2.199    19.079    -0.025
   282   1 H        2.164    15.256    -0.020
   283   1 H        2.366     6.871    -0.009
   284  15 P        3.202     8.283    -0.001
   285   8 O        2.179    24.948    -0.003
   286   8 O        2.237    10.903    -0.001
   287   8 O        2.655     0.867    -0.000
   288   6 C        2.845     0.625    -0.000
   289   6 C        3.185     0.259    -0.000
   290   8 O        2.932     2.246    -0.000
   291   6 C        3.094     0.420    -0.000
   292   8 O        2.285    14.911    -0.002
   293   6 C        3.037     1.343    -0.000
   294   6 C        3.396     0.293    -0.000
   295   7 N        3.578     0.617    -0.000
   296   6 C        3.130     4.532    -0.000
   297   7 N        2.781    13.004    -0.004
   298   6 C        3.792     2.913    -0.000
   299   6 C        3.260     3.998    -0.000
   300   8 O        2.437    14.374    -0.002
   301   7 N        3.243     1.568    -0.000
   302   6 C        3.619     3.263    -0.000
   303   7 N        2.688     2.616    -0.001
   304   7 N        3.104     5.305    -0.002
   305   6 C        4.038     2.739    -0.000
   306   1 H        2.190     9.701    -0.013
   307   1 H        2.125    14.405    -0.019
   308   1 H        2.191    14.951    -0.020
   309   1 H        2.188    10.610    -0.014
   310   1 H        1.942    20.342    -0.027
   311   1 H        2.234    10.900    -0.015
   312   1 H        2.142    15.930    -0.021
   313   1 H        2.356    11.831    -0.016
   314   1 H        2.241     9.100    -0.012
   315   1 H        2.929     1.905    -0.003
   316   1 H        2.463     4.654    -0.006
   317   1 H        2.227    16.321    -0.022
   318   8 O        2.272     7.952    -0.001
   319   6 C        2.719     0.981    -0.000
   320   6 C        3.121     0.203    -0.000
   321   8 O        2.745     9.851    -0.001
   322   6 C        3.220     0.069    -0.000
   323   8 O        2.603     5.349    -0.001
   324   6 C        3.223     0.226    -0.000
   325   6 C        3.349     0.742    -0.000
   326   7 N        3.272     1.903    -0.001
   327   6 C        3.199     6.552    -0.000
   328   8 O        2.501    14.446    -0.002
   329   7 N        3.061     5.467    -0.002
   330   6 C        3.260     6.970    -0.000
   331   7 N        2.503     6.828    -0.002
   332   6 C        3.000     8.637    -0.000
   333   6 C        3.071     5.737    -0.000
   334   1 H        2.065    17.694    -0.024
   335   1 H        2.070    17.698    -0.024
   336   1 H        2.152    16.030    -0.021
   337   1 H        2.269     7.509    -0.010
   338   1 H        2.350     7.423    -0.010
   339   1 H        2.373     1.634    -0.002
   340   1 H        2.319    11.270    -0.015
   341   1 H        2.322     7.617    -0.010
   342   1 H        2.108    20.856    -0.028
   343   1 H        2.065    18.689    -0.025
   344   1 H        2.225     7.136    -0.010
   345   1 H        1.920    22.648    -0.030
   346  15 P        3.229     5.835    -0.001
   347   8 O        2.189    24.337    -0.003
   348   8 O        2.265     7.326    -0.001
   349   8 O        2.732     0.025    -0.000
   350   6 C        2.891     0.559    -0.000
   351   6 C        3.247     0.355    -0.000
   352   8 O        2.934     5.509    -0.001
   353   6 C        3.311     0.311    -0.000
   354   8 O        2.631     4.835    -0.001
   355   6 C        3.324     0.215    -0.000
   356   6 C        3.629     0.080    -0.000
   357   7 N        3.856     0.149    -0.000
   358   6 C        3.220     2.129    -0.000
   359   7 N        2.811    16.295    -0.005
   360   6 C        4.039     1.478    -0.000
   361   6 C        3.525     0.870    -0.000
   362   8 O        2.550    12.517    -0.002
   363   7 N        3.658     0.000    -0.000
   364   6 C        4.078     0.069    -0.000
   365   7 N        2.856     0.363    -0.000
   366   7 N        3.385     2.670    -0.001
   367   6 C        4.455     0.044    -0.000
   368   1 H        2.169    10.994    -0.015
   369   1 H        2.152    12.809    -0.017
   370   1 H        2.167    16.687    -0.022
   371   1 H        2.288     7.026    -0.009
   372   1 H        2.390     6.074    -0.008
   373   1 H        2.412     0.538    -0.001
   374   1 H        2.495     6.061    -0.008
   375   1 H        2.301     4.756    -0.006
   376   1 H        3.330     0.000    -0.000
   377   1 H        2.694     1.298    -0.002
   378   1 H        2.323    15.638    -0.021
   379  15 P        3.224     7.026    -0.001
   380   8 O        2.190    24.069    -0.003
   381   8 O        2.259     9.832    -0.001
   382   8 O        2.611     2.715    -0.000
   383   6 C        2.847     0.357    -0.000
   384   6 C        3.260     0.112    -0.000
   385   8 O        2.984     5.118    -0.001
   386   6 C        3.293     0.136    -0.000
   387   8 O        2.630     5.160    -0.001
   388   6 C        3.446     0.047    -0.000
   389   6 C        3.654     0.283    -0.000
   390   7 N        3.815     0.030    -0.000
   391   6 C        3.710     0.000    -0.000
   392   8 O        2.593     8.674    -0.001
   393   7 N        3.512     0.001    -0.000
   394   6 C        3.725     0.000    -0.000
   395   8 O        2.719     6.289    -0.001
   396   6 C        3.928     0.025    -0.000
   397   6 C        2.798     2.390    -0.000
   398   6 C        3.612     0.088    -0.000
   399   1 H        2.167    12.458    -0.017
   400   1 H        2.128    14.454    -0.019
   401   1 H        2.224    14.779    -0.020
   402   1 H        2.271     8.487    -0.011
   403   1 H        2.499     3.655    -0.005
   404   1 H        2.603     0.001    -0.000
   405   1 H        2.409     8.697    -0.012
   406   1 H        3.205     0.003    -0.000
   407   1 H        2.196    11.106    -0.015
   408   1 H        2.232     8.226    -0.011
   409   1 H        2.183    13.475    -0.018
   410   1 H        2.464     2.452    -0.003
   411  15 P        3.228     7.348    -0.001
   412   8 O        2.223    11.098    -0.002
   413   8 O        2.211    23.359    -0.003
   414   8 O        2.662     2.126    -0.000
   415   6 C        2.882     0.448    -0.000
   416   6 C        3.285     0.161    -0.000
   417   8 O        3.059     3.209    -0.000
   418   6 C        3.314     0.078    -0.000
   419   8 O        2.639     5.538    -0.001
   420   6 C        3.396     0.073    -0.000
   421   6 C        3.663     0.193    -0.000
   422   7 N        3.837     0.003    -0.000
   423   6 C        3.723     0.044    -0.000
   424   8 O        2.762     3.394    -0.000
   425   7 N        3.744     0.002    -0.000
   426   6 C        4.019     0.000     0.000
   427   7 N        2.817     0.081    -0.000
   428   6 C        3.475     0.828    -0.000
   429   6 C        3.549     0.493    -0.000
   430   1 H        2.193    11.130    -0.015
   431   1 H        2.137    14.245    -0.019
   432   1 H        2.215    15.281    -0.020
   433   1 H        2.301     5.683    -0.008
   434   1 H        2.454     5.360    -0.007
   435   1 H        2.544     0.004    -0.000
   436   1 H        2.410    10.497    -0.014
   437   1 H        2.665     1.670    -0.002
   438   1 H        2.280    11.556    -0.015
   439   1 H        2.233    12.559    -0.017
   440   1 H        2.470     4.112    -0.005
   441  15 P        3.210     9.540    -0.001
   442   8 O        2.184    24.727    -0.003
   443   8 O        2.234    14.835    -0.002
   444   8 O        2.675     2.039    -0.000
   445   6 C        2.890     0.486    -0.000
   446   6 C        3.342     0.133    -0.000
   447   8 O        3.082     3.284    -0.000
   448   6 C        3.325     0.109    -0.000
   449   8 O        2.685     4.232    -0.001
   450   6 C        3.401     0.126    -0.000
   451   6 C        3.685     0.251    -0.000
   452   7 N        3.802     0.001    -0.000
   453   6 C        3.775     0.001    -0.000
   454   8 O        2.835     3.520    -0.000
   455   7 N        3.740     0.000    -0.000
   456   6 C        3.969     0.107    -0.000
   457   7 N        2.798     1.100    -0.000
   458   6 C        3.504     0.558    -0.000
   459   6 C        3.514     0.272    -0.000
   460   1 H        2.196    11.304    -0.015
   461   1 H        2.136    14.480    -0.019
   462   1 H        2.262    13.560    -0.018
   463   1 H        2.265     8.219    -0.011
   464   1 H        2.417     4.908    -0.007
   465   1 H        2.509     0.247    -0.000
   466   1 H        2.448     7.349    -0.010
   467   1 H        2.659     2.090    -0.003
   468   1 H        2.298    13.282    -0.018
   469   1 H        2.260    10.852    -0.015
   470   1 H        2.429     4.641    -0.006
   471  15 P        3.226     7.788    -0.001
   472   8 O        2.216    12.158    -0.002
   473   8 O        2.215    23.187    -0.003
   474   8 O        2.610     4.479    -0.001
   475   6 C        2.881     0.353    -0.000
   476   6 C        3.322     0.135    -0.000
   477   8 O        3.203     0.889    -0.000
   478   6 C        3.323     0.390    -0.000
   479   8 O        2.638     5.812    -0.001
   480   6 C        3.365     0.283    -0.000
   481   6 C        3.748     0.065    -0.000
   482   7 N        3.776     0.040    -0.000
   483   6 C        3.766     0.002    -0.000
   484   8 O        2.815     4.237    -0.001
   485   7 N        3.399     0.001    -0.000
   486   6 C        3.455     1.247    -0.000
   487   8 O        2.490     9.819    -0.001
   488   6 C        3.731     2.261    -0.000
   489   6 C        2.762     2.832    -0.000
   490   6 C        3.544     2.457    -0.000
   491   1 H        2.241     8.410    -0.011
   492   1 H        2.136    14.475    -0.019
   493   1 H        2.255    14.470    -0.019
   494   1 H        2.245     9.218    -0.012
   495   1 H        2.359    10.396    -0.014
   496   1 H        2.424     1.177    -0.002
   497   1 H        2.462     6.440    -0.009
   498   1 H        3.146     0.001    -0.000
   499   1 H        2.123    19.399    -0.026
   500   1 H        2.189    11.276    -0.015
   501   1 H        2.237     7.957    -0.011
   502   1 H        2.477     2.856    -0.004
   503  15 P        3.248     8.046    -0.001
   504   8 O        2.192    24.093    -0.003
   505   8 O        2.276    13.730    -0.002
   506   8 O        2.664     0.315    -0.000
   507   6 C        2.862     0.534    -0.000
   508   6 C        3.269     0.251    -0.000
   509   8 O        2.974     6.114    -0.001
   510   6 C        3.318     0.406    -0.000
   511   8 O        2.653     5.147    -0.001
   512   6 C        3.395     0.237    -0.000
   513   6 C        3.668     0.152    -0.000
   514   7 N        4.074     0.001    -0.000
   515   6 C        3.488     1.233    -0.000
   516   7 N        3.098     7.751    -0.002
   517   6 C        4.712     0.011    -0.000
   518   6 C        4.028     0.009    -0.000
   519   8 O        2.825     3.835    -0.001
   520   7 N        4.050     0.000     0.000
   521   6 C        4.283     0.118    -0.000
   522   7 N        2.908     1.073    -0.000
   523   7 N        3.371     4.126    -0.001
   524   6 C        4.767     0.005    -0.000
   525   1 H        2.148    14.375    -0.019
   526   1 H        2.153    12.181    -0.016
   527   1 H        2.197    15.975    -0.021
   528   1 H        2.262     7.488    -0.010
   529   1 H        2.445     6.300    -0.008
   530   1 H        2.451     0.660    -0.001
   531   1 H        2.434     7.193    -0.010
   532   1 H        2.451     3.192    -0.004
   533   1 H        3.676     0.000     0.000
   534   1 H        2.750     1.685    -0.002
   535   1 H        2.310    18.446    -0.025
   536  15 P        3.212     9.697    -0.001
   537   8 O        2.179    24.945    -0.003
   538   8 O        2.238    13.776    -0.002
   539   8 O        2.626     2.907    -0.000
   540   6 C        2.871     0.367    -0.000
   541   6 C        3.324     0.140    -0.000
   542   8 O        3.111     2.586    -0.000
   543   6 C        3.323     0.207    -0.000
   544   8 O        2.740     1.420    -0.000
   545   6 C        3.315     0.870    -0.000
   546   6 C        3.760     0.259    -0.000
   547   7 N        4.041     0.024    -0.000
   548   6 C        3.373     3.715    -0.000
   549   7 N        2.960    11.407    -0.003
   550   6 C        4.500     0.061    -0.000
   551   6 C        3.818     0.059    -0.000
   552   8 O        2.649    10.748    -0.001
   553   7 N        3.897     0.000    -0.000
   554   6 C        4.367     0.000    -0.000
   555   7 N        2.944     0.204    -0.000
   556   7 N        3.497     3.412    -0.001
   557   6 C        4.825     0.021    -0.000
   558   1 H        2.219     9.206    -0.012
   559   1 H        2.134    14.696    -0.020
   560   1 H        2.258    14.508    -0.019
   561   1 H        2.224    10.200    -0.014
   562   1 H        2.335     9.217    -0.012
   563   1 H        2.377     3.903    -0.005
   564   1 H        2.554     5.435    -0.007
   565   1 H        2.346     8.039    -0.011
   566   1 H        3.451     0.000    -0.000
   567   1 H        2.744     1.205    -0.002
   568   1 H        2.338    14.975    -0.020
   569  15 P        3.249     6.687    -0.001
   570   8 O        2.192    25.107    -0.003
   571   8 O        2.268    11.904    -0.002
   572   8 O        2.640     2.539    -0.000
   573   6 C        2.847     0.437    -0.000
   574   6 C        3.224     0.261    -0.000
   575   8 O        2.922     8.071    -0.001
   576   6 C        3.279     0.224    -0.000
   577   8 O        2.602     6.264    -0.001
   578   6 C        3.362     0.153    -0.000
   579   6 C        3.594     0.622    -0.000
   580   7 N        4.008     0.287    -0.000
   581   6 C        3.408     0.761    -0.000
   582   7 N        3.035     5.947    -0.002
   583   6 C        4.776     0.000    -0.000
   584   6 C        4.354     0.000    -0.000
   585   7 N        2.853     0.103    -0.000
   586   7 N        3.759     0.000    -0.000
   587   6 C        3.426     0.579    -0.000
   588   7 N        3.126     5.319    -0.002
   589   6 C        4.655     0.059    -0.000
   590   1 H        2.162    12.867    -0.017
   591   1 H        2.113    15.733    -0.021
   592   1 H        2.176    16.129    -0.022
   593   1 H        2.278     7.509    -0.010
   594   1 H        2.443     5.332    -0.007
   595   1 H        2.491     0.022    -0.000
   596   1 H        2.411    11.397    -0.015
   597   1 H        2.421     1.574    -0.002
   598   1 H        2.732     0.965    -0.001
   599   1 H        2.317    12.778    -0.017
   600   1 H        2.380     8.681    -0.012
   601  15 P        3.193     7.997    -0.001
   602   8 O        2.174    24.955    -0.003
   603   8 O        2.236    10.563    -0.001
   604   8 O        2.617     1.919    -0.000
   605   6 C        2.817     0.434    -0.000
   606   6 C        3.177     0.147    -0.000
   607   8 O        2.934     4.761    -0.001
   608   6 C        3.091     0.445    -0.000
   609   8 O        2.286    15.220    -0.002
   610   6 C        3.142     0.832    -0.000
   611   6 C        3.460     0.561    -0.000
   612   7 N        3.590     0.029    -0.000
   613   6 C        3.453     2.936    -0.000
   614   8 O        2.639     6.630    -0.001
   615   7 N        3.373     2.020    -0.001
   616   6 C        3.560     3.689    -0.000
   617   7 N        2.596     4.789    -0.001
   618   6 C        3.254     4.472    -0.000
   619   6 C        3.401     0.685    -0.000
   620   1 H        2.157    12.502    -0.017
   621   1 H        2.105    15.253    -0.020
   622   1 H        2.185    14.755    -0.020
   623   1 H        2.158    13.160    -0.018
   624   1 H        1.953    19.541    -0.026
   625   1 H        2.311    10.338    -0.014
   626   1 H        2.186    14.468    -0.019
   627   1 H        2.318    11.695    -0.016
   628   1 H        2.429     5.214    -0.007
   629   1 H        2.157    18.340    -0.025
   630   1 H        2.157    14.450    -0.019
   631   1 H        2.421     3.693    -0.005
   632   1 H        1.906    23.405    -0.031
   633   1 H        1.973    15.190    -0.020
   634   1 H        1.955    17.499    -0.023
   635   1 H        2.021    12.735    -0.017
   636   1 H        1.893    23.864    -0.032
   637   1 H        1.951    17.365    -0.023
   638   1 H        1.893    23.954    -0.032
   639   1 H        1.908    22.959    -0.031
   640   1 H        1.911    23.497    -0.031
   641   1 H        1.940    16.893    -0.023
   642   1 H        1.929    20.991    -0.028
   643   1 H        1.900    23.693    -0.032
   644   1 H        1.906    23.710    -0.032
   645   1 H        1.893    23.919    -0.032
   646   1 H        1.898    23.788    -0.032
   647   1 H        1.894    23.797    -0.032
   648   1 H        1.900    22.505    -0.030
   649   1 H        1.916    21.839    -0.029

 total SASA / Å² :     4014.817

     #   Z          covCN         q      C6AA      α(0)
     1   8 O        1.654    -0.473    22.326     6.378
     2   6 C        3.673     0.057    19.853     6.386
     3   6 C        3.801     0.090    19.090     6.221
     4   8 O        1.701    -0.320    19.351     5.939
     5   6 C        3.929     0.110    18.722     6.149
     6   8 O        1.658    -0.326    19.462     5.955
     7   6 C        3.815    -0.092    22.244     6.713
     8   6 C        3.737     0.171    17.942     6.045
     9   7 N        2.823    -0.063    22.459     7.039
    10   6 C        3.138     0.096    25.659     8.290
    11   7 N        1.868    -0.289    28.341     7.891
    12   6 C        3.202    -0.009    27.660     8.569
    13   6 C        2.774     0.263    22.566     7.780
    14   8 O        0.860    -0.505    23.905     6.555
    15   7 N        2.710    -0.202    25.389     7.484
    16   6 C        2.837     0.245    22.907     7.843
    17   7 N        2.665    -0.277    27.145     7.738
    18   7 N        1.844    -0.363    30.300     8.158
    19   6 C        3.083     0.120    25.278     8.242
    20   1 H        0.925     0.067     2.116     2.275
    21   1 H        0.924     0.073     2.055     2.242
    22   1 H        0.924     0.061     2.191     2.315
    23   1 H        0.925     0.073     2.048     2.238
    24   1 H        0.924     0.075     2.033     2.230
    25   1 H        0.925     0.078     2.000     2.212
    26   1 H        0.924     0.067     2.121     2.277
    27   1 H        0.926     0.072     2.067     2.248
    28   1 H        0.853     0.237     0.936     1.516
    29   1 H        0.858     0.243     0.910     1.495
    30   1 H        0.860     0.236     0.941     1.520
    31   1 H        0.805     0.340     0.612     1.229
    32  15 P        3.759     0.742   131.275    20.582
    33   8 O        1.614    -0.398    20.832     6.160
    34   8 O        0.808    -0.600    26.140     6.854
    35   8 O        1.657    -0.337    19.659     5.985
    36   6 C        3.917     0.056    19.577     6.289
    37   6 C        3.802     0.090    19.094     6.221
    38   8 O        1.701    -0.310    19.169     5.911
    39   6 C        3.927     0.108    18.760     6.155
    40   8 O        1.657    -0.334    19.622     5.980
    41   6 C        3.820    -0.101    22.405     6.736
    42   6 C        3.737     0.165    18.029     6.059
    43   7 N        2.738    -0.079    22.783     7.089
    44   6 C        2.701     0.322    21.527     7.594
    45   8 O        0.859    -0.484    23.442     6.491
    46   7 N        2.689    -0.199    25.315     7.473
    47   6 C        2.763     0.275    22.343     7.741
    48   8 O        0.859    -0.446    22.621     6.377
    49   6 C        2.950    -0.040    28.989     8.831
    50   6 C        3.754    -0.127    22.993     6.838
    51   6 C        2.842     0.014    27.698     8.625
    52   1 H        0.924     0.091     1.874     2.141
    53   1 H        0.924     0.085     1.931     2.173
    54   1 H        0.924     0.085     1.933     2.174
    55   1 H        0.925     0.078     2.002     2.213
    56   1 H        0.924     0.080     1.980     2.200
    57   1 H        0.925     0.078     2.000     2.212
    58   1 H        0.924     0.078     2.004     2.214
    59   1 H        0.852     0.245     0.903     1.489
    60   1 H        0.924     0.086     1.918     2.166
    61   1 H        0.924     0.077     2.008     2.216
    62   1 H        0.925     0.078     1.996     2.209
    63   1 H        0.926     0.111     1.687     2.031
    64  15 P        3.728     0.738   131.411    20.592
    65   8 O        1.614    -0.390    20.684     6.138
    66   8 O        0.808    -0.595    26.025     6.838
    67   8 O        1.656    -0.319    19.342     5.937
    68   6 C        3.886     0.053    19.642     6.301
    69   6 C        3.782     0.089    19.123     6.229
    70   8 O        1.700    -0.319    19.328     5.936
    71   6 C        3.890     0.107    18.771     6.159
    72   8 O        1.656    -0.344    19.788     6.005
    73   6 C        3.821    -0.094    22.284     6.718
    74   6 C        3.714     0.172    17.957     6.054
    75   7 N        2.738    -0.088    22.947     7.115
    76   6 C        2.751     0.332    21.359     7.568
    77   8 O        0.862    -0.529    24.433     6.627
    78   7 N        1.863    -0.355    30.093     8.131
    79   6 C        2.882     0.192    23.905     8.015
    80   7 N        2.669    -0.238    26.230     7.606
    81   6 C        2.913    -0.109    30.743     9.092
    82   6 C        2.863     0.035    27.210     8.550
    83   1 H        0.924     0.090     1.878     2.143
    84   1 H        0.924     0.090     1.882     2.146
    85   1 H        0.924     0.093     1.849     2.126
    86   1 H        0.924     0.077     2.010     2.217
    87   1 H        0.925     0.082     1.958     2.188
    88   1 H        0.925     0.071     2.070     2.250
    89   1 H        0.925     0.068     2.108     2.270
    90   1 H        0.857     0.239     0.926     1.507
    91   1 H        0.859     0.230     0.967     1.540
    92   1 H        0.926     0.101     1.776     2.084
    93   1 H        0.926     0.098     1.805     2.101
    94  15 P        3.689     0.735   131.516    20.601
    95   8 O        1.614    -0.389    20.659     6.135
    96   8 O        0.808    -0.593    25.971     6.831
    97   8 O        1.656    -0.321    19.380     5.943
    98   6 C        3.879     0.053    19.650     6.303
    99   6 C        3.788     0.087    19.148     6.232
   100   8 O        1.700    -0.319    19.332     5.936
   101   6 C        3.925     0.110    18.728     6.150
   102   8 O        1.656    -0.333    19.588     5.975
   103   6 C        3.826    -0.090    22.200     6.704
   104   6 C        3.729     0.171    17.941     6.047
   105   7 N        2.739    -0.081    22.807     7.093
   106   6 C        2.753     0.331    21.370     7.570
   107   8 O        0.861    -0.515    24.116     6.584
   108   7 N        1.861    -0.351    29.982     8.116
   109   6 C        2.886     0.201    23.746     7.989
   110   7 N        2.671    -0.251    26.521     7.648
   111   6 C        2.917    -0.102    30.578     9.068
   112   6 C        2.869     0.042    27.053     8.526
   113   1 H        0.924     0.089     1.890     2.150
   114   1 H        0.924     0.085     1.928     2.172
   115   1 H        0.924     0.100     1.789     2.092
   116   1 H        0.925     0.075     2.034     2.230
   117   1 H        0.925     0.080     1.982     2.202
   118   1 H        0.925     0.069     2.093     2.263
   119   1 H        0.925     0.078     1.998     2.211
   120   1 H        0.857     0.242     0.914     1.498
   121   1 H        0.860     0.222     1.000     1.566
   122   1 H        0.926     0.082     1.959     2.189
   123   1 H        0.926     0.087     1.909     2.161
   124   6 C        3.187     0.103    25.286     8.205
   125   7 N        2.829    -0.074    22.665     7.071
   126   6 C        3.138     0.141    24.714     8.136
   127   6 C        3.233     0.015    26.829     8.407
   128   7 N        1.868    -0.289    28.332     7.890
   129   7 N        1.826    -0.337    29.588     8.060
   130   6 C        2.920     0.153    24.682     8.147
   131   7 N        1.862    -0.334    29.517     8.053
   132   6 C        2.903     0.179    24.165     8.060
   133   7 N        2.666    -0.269    26.952     7.710
   134  15 P        3.732     0.731   131.666    20.612
   135   8 O        1.614    -0.384    20.572     6.122
   136   8 O        0.808    -0.595    26.032     6.839
   137   8 O        1.657    -0.322    19.404     5.947
   138   6 C        3.901     0.053    19.642     6.300
   139   6 C        3.779     0.087    19.166     6.237
   140   8 O        1.700    -0.310    19.178     5.913
   141   6 C        3.908     0.112    18.702     6.147
   142   8 O        1.657    -0.347    19.859     6.016
   143   6 C        3.823    -0.088    22.153     6.698
   144   6 C        3.704     0.172    17.978     6.062
   145   1 H        0.926     0.072     2.064     2.247
   146   1 H        0.926     0.043     2.414     2.429
   147   1 H        0.860     0.222     1.002     1.568
   148   1 H        0.859     0.231     0.963     1.537
   149   1 H        0.924     0.090     1.878     2.143
   150   1 H        0.924     0.091     1.865     2.136
   151   1 H        0.924     0.094     1.838     2.120
   152   1 H        0.924     0.074     2.046     2.237
   153   1 H        0.924     0.087     1.913     2.163
   154   1 H        0.924     0.071     2.071     2.251
   155   1 H        0.925     0.065     2.137     2.286
   156  15 P        3.721     0.745   131.185    20.575
   157   8 O        1.614    -0.392    20.712     6.142
   158   8 O        0.808    -0.590    25.913     6.824
   159   8 O        1.656    -0.331    19.565     5.971
   160   6 C        3.900     0.051    19.675     6.305
   161   6 C        3.794     0.087    19.149     6.231
   162   8 O        1.702    -0.310    19.167     5.911
   163   6 C        3.953     0.112    18.693     6.143
   164   8 O        1.657    -0.336    19.655     5.985
   165   6 C        3.824    -0.085    22.107     6.691
   166   6 C        3.731     0.171    17.941     6.046
   167   7 N        2.831    -0.067    22.542     7.052
   168   6 C        3.150     0.103    25.465     8.254
   169   7 N        1.870    -0.307    28.811     7.956
   170   6 C        3.218     0.002    27.272     8.494
   171   6 C        2.772     0.266    22.505     7.770
   172   8 O        0.860    -0.501    23.797     6.540
   173   7 N        2.714    -0.205    25.456     7.493
   174   6 C        2.841     0.247    22.862     7.836
   175   7 N        2.665    -0.271    27.017     7.720
   176   7 N        1.843    -0.363    30.297     8.157
   177   6 C        3.087     0.127    25.117     8.215
   178   1 H        0.925     0.090     1.875     2.141
   179   1 H        0.924     0.086     1.921     2.168
   180   1 H        0.924     0.106     1.729     2.057
   181   1 H        0.924     0.069     2.094     2.263
   182   1 H        0.925     0.071     2.077     2.254
   183   1 H        0.925     0.068     2.106     2.270
   184   1 H        0.924     0.074     2.043     2.235
   185   1 H        0.926     0.046     2.375     2.410
   186   1 H        0.854     0.236     0.942     1.521
   187   1 H        0.858     0.241     0.917     1.501
   188   1 H        0.857     0.245     0.902     1.488
   189  15 P        3.770     0.739   131.388    20.591
   190   8 O        1.614    -0.386    20.599     6.126
   191   8 O        0.808    -0.597    26.071     6.844
   192   8 O        1.657    -0.323    19.408     5.947
   193   6 C        3.915     0.052    19.650     6.300
   194   6 C        3.818     0.087    19.131     6.225
   195   8 O        1.702    -0.318    19.302     5.932
   196   6 C        3.974     0.110    18.709     6.146
   197   8 O        1.658    -0.346    19.837     6.013
   198   6 C        3.829    -0.091    22.211     6.706
   199   6 C        3.768     0.171    17.890     6.028
   200   7 N        2.828    -0.058    22.355     7.022
   201   6 C        3.139     0.094    25.683     8.294
   202   7 N        1.872    -0.301    28.646     7.934
   203   6 C        3.199    -0.007    27.630     8.567
   204   6 C        2.774     0.264    22.546     7.777
   205   8 O        0.860    -0.496    23.696     6.527
   206   7 N        2.709    -0.196    25.255     7.464
   207   6 C        2.843     0.248    22.852     7.834
   208   7 N        2.667    -0.261    26.778     7.686
   209   7 N        1.849    -0.364    30.334     8.163
   210   6 C        3.100     0.132    25.009     8.195
   211   1 H        0.924     0.089     1.890     2.150
   212   1 H        0.925     0.090     1.877     2.142
   213   1 H        0.924     0.096     1.821     2.110
   214   1 H        0.924     0.067     2.120     2.277
   215   1 H        0.924     0.078     2.005     2.214
   216   1 H        0.925     0.083     1.944     2.181
   217   1 H        0.924     0.067     2.122     2.278
   218   1 H        0.926     0.056     2.246     2.344
   219   1 H        0.855     0.238     0.930     1.511
   220   1 H        0.859     0.234     0.950     1.527
   221   1 H        0.860     0.244     0.906     1.491
   222  15 P        3.772     0.754   130.878    20.550
   223   8 O        1.614    -0.400    20.875     6.167
   224   8 O        0.808    -0.588    25.860     6.817
   225   8 O        1.656    -0.327    19.487     5.959
   226   6 C        3.910     0.048    19.717     6.311
   227   6 C        3.812     0.087    19.130     6.226
   228   8 O        1.702    -0.311    19.179     5.913
   229   6 C        3.928     0.110    18.716     6.148
   230   8 O        1.657    -0.336    19.648     5.984
   231   6 C        3.846    -0.096    22.291     6.716
   232   6 C        3.714     0.166    18.046     6.070
   233   7 N        2.830    -0.069    22.565     7.055
   234   6 C        3.170     0.100    25.451     8.242
   235   7 N        1.865    -0.304    28.734     7.945
   236   6 C        3.233     0.014    26.859     8.412
   237   6 C        2.915     0.182    24.100     8.050
   238   7 N        2.668    -0.263    26.827     7.693
   239   7 N        1.865    -0.315    29.017     7.985
   240   6 C        2.933     0.152    24.713     8.153
   241   7 N        1.826    -0.325    29.284     8.019
   242   6 C        3.139     0.136    24.823     8.154
   243   1 H        0.924     0.094     1.845     2.124
   244   1 H        0.924     0.086     1.914     2.164
   245   1 H        0.924     0.101     1.774     2.083
   246   1 H        0.924     0.073     2.055     2.242
   247   1 H        0.924     0.074     2.045     2.236
   248   1 H        0.926     0.084     1.937     2.176
   249   1 H        0.925     0.085     1.928     2.172
   250   1 H        0.926     0.067     2.114     2.274
   251   1 H        0.859     0.237     0.936     1.516
   252   1 H        0.859     0.201     1.100     1.643
   253   1 H        0.926     0.047     2.359     2.402
   254  15 P        3.764     0.742   131.285    20.582
   255   8 O        1.614    -0.379    20.460     6.105
   256   8 O        0.808    -0.573    25.482     6.767
   257   8 O        1.656    -0.335    19.631     5.981
   258   6 C        3.920     0.050    19.680     6.305
   259   6 C        3.835     0.096    18.979     6.198
   260   8 O        1.705    -0.323    19.396     5.946
   261   6 C        3.915     0.099    18.888     6.177
   262   8 O        1.656    -0.330    19.537     5.967
   263   6 C        3.837    -0.094    22.259     6.712
   264   6 C        3.766     0.179    17.782     6.010
   265   7 N        2.744    -0.080    22.796     7.091
   266   6 C        2.762     0.333    21.351     7.567
   267   8 O        0.862    -0.523    24.303     6.610
   268   7 N        1.874    -0.358    30.165     8.141
   269   6 C        2.886     0.201    23.728     7.986
   270   7 N        2.678    -0.232    26.073     7.584
   271   6 C        2.911    -0.097    30.453     9.049
   272   6 C        2.861     0.037    27.175     8.545
   273   1 H        0.924     0.087     1.904     2.158
   274   1 H        0.924     0.090     1.882     2.145
   275   1 H        0.924     0.082     1.963     2.191
   276   1 H        0.925     0.085     1.925     2.170
   277   1 H        0.924     0.083     1.951     2.185
   278   1 H        0.925     0.078     1.998     2.211
   279   1 H        0.924     0.065     2.139     2.287
   280   1 H        0.858     0.237     0.937     1.517
   281   1 H        0.860     0.239     0.928     1.509
   282   1 H        0.926     0.094     1.843     2.123
   283   1 H        0.926     0.098     1.804     2.101
   284  15 P        3.697     0.740   131.336    20.586
   285   8 O        0.808    -0.586    25.797     6.808
   286   8 O        1.614    -0.395    20.768     6.151
   287   8 O        1.656    -0.336    19.656     5.985
   288   6 C        3.867     0.065    19.445     6.270
   289   6 C        3.775     0.096    19.023     6.214
   290   8 O        1.700    -0.337    19.648     5.985
   291   6 C        3.732     0.106    18.922     6.209
   292   8 O        1.655    -0.485    22.577     6.414
   293   6 C        3.810    -0.097    22.346     6.729
   294   6 C        3.709     0.165    18.071     6.076
   295   7 N        2.819    -0.065    22.493     7.044
   296   6 C        3.157     0.092    25.672     8.284
   297   7 N        1.873    -0.295    28.495     7.913
   298   6 C        3.204    -0.009    27.641     8.564
   299   6 C        2.771     0.263    22.560     7.779
   300   8 O        0.860    -0.505    23.892     6.553
   301   7 N        2.712    -0.198    25.294     7.470
   302   6 C        2.843     0.247    22.867     7.837
   303   7 N        2.666    -0.264    26.850     7.696
   304   7 N        1.847    -0.359    30.186     8.143
   305   6 C        3.108     0.126    25.113     8.210
   306   1 H        0.924     0.064     2.151     2.294
   307   1 H        0.924     0.075     2.036     2.231
   308   1 H        0.924     0.078     1.997     2.210
   309   1 H        0.925     0.055     2.260     2.351
   310   1 H        0.805     0.358     0.570     1.186
   311   1 H        0.925     0.067     2.116     2.275
   312   1 H        0.924     0.086     1.917     2.165
   313   1 H        0.924     0.074     2.041     2.234
   314   1 H        0.926     0.059     2.213     2.326
   315   1 H        0.854     0.237     0.935     1.515
   316   1 H        0.859     0.232     0.955     1.531
   317   1 H        0.858     0.241     0.919     1.502
   318   8 O        1.654    -0.484    22.543     6.409
   319   6 C        3.673     0.060    19.807     6.378
   320   6 C        3.774     0.095    19.047     6.219
   321   8 O        1.698    -0.315    19.264     5.926
   322   6 C        3.920     0.106    18.779     6.159
   323   8 O        1.656    -0.338    19.678     5.988
   324   6 C        3.821    -0.089    22.171     6.701
   325   6 C        3.708     0.174    17.937     6.053
   326   7 N        2.740    -0.084    22.881     7.104
   327   6 C        2.757     0.329    21.412     7.578
   328   8 O        0.862    -0.541    24.707     6.664
   329   7 N        1.867    -0.359    30.191     8.145
   330   6 C        2.881     0.198    23.785     7.995
   331   7 N        2.670    -0.242    26.325     7.620
   332   6 C        2.912    -0.101    30.539     9.062
   333   6 C        2.877     0.041    27.074     8.530
   334   1 H        0.925     0.064     2.156     2.296
   335   1 H        0.925     0.054     2.268     2.355
   336   1 H        0.924     0.071     2.078     2.254
   337   1 H        0.924     0.074     2.039     2.233
   338   1 H        0.924     0.070     2.082     2.257
   339   1 H        0.925     0.066     2.134     2.285
   340   1 H        0.925     0.064     2.150     2.293
   341   1 H        0.858     0.243     0.912     1.496
   342   1 H        0.859     0.235     0.946     1.524
   343   1 H        0.926     0.093     1.854     2.129
   344   1 H        0.926     0.104     1.752     2.070
   345   1 H        0.805     0.356     0.573     1.189
   346  15 P        3.719     0.744   131.214    20.577
   347   8 O        0.808    -0.600    26.150     6.855
   348   8 O        1.614    -0.394    20.755     6.149
   349   8 O        1.656    -0.330    19.550     5.969
   350   6 C        3.875     0.064    19.460     6.272
   351   6 C        3.797     0.091    19.088     6.221
   352   8 O        1.701    -0.313    19.218     5.919
   353   6 C        3.935     0.106    18.776     6.158
   354   8 O        1.656    -0.337    19.662     5.986
   355   6 C        3.825    -0.100    22.380     6.732
   356   6 C        3.725     0.164    18.056     6.067
   357   7 N        2.815    -0.066    22.506     7.046
   358   6 C        3.131     0.090    25.809     8.317
   359   7 N        1.871    -0.292    28.420     7.902
   360   6 C        3.178    -0.010    27.852     8.617
   361   6 C        2.774     0.264    22.556     7.779
   362   8 O        0.861    -0.516    24.133     6.586
   363   7 N        2.710    -0.202    25.399     7.485
   364   6 C        2.852     0.251    22.800     7.826
   365   7 N        2.675    -0.270    26.996     7.717
   366   7 N        1.855    -0.368    30.448     8.178
   367   6 C        3.110     0.123    25.168     8.219
   368   1 H        0.924     0.077     2.009     2.217
   369   1 H        0.924     0.074     2.043     2.235
   370   1 H        0.924     0.094     1.839     2.121
   371   1 H        0.924     0.070     2.090     2.261
   372   1 H        0.925     0.088     1.895     2.153
   373   1 H        0.925     0.087     1.912     2.162
   374   1 H        0.925     0.082     1.961     2.190
   375   1 H        0.926     0.070     2.090     2.260
   376   1 H        0.852     0.230     0.968     1.542
   377   1 H        0.858     0.242     0.917     1.500
   378   1 H        0.860     0.236     0.938     1.517
   379  15 P        3.748     0.745   131.165    20.573
   380   8 O        0.808    -0.595    26.029     6.839
   381   8 O        1.614    -0.391    20.701     6.141
   382   8 O        1.656    -0.324    19.432     5.951
   383   6 C        3.905     0.061    19.504     6.277
   384   6 C        3.801     0.088    19.122     6.226
   385   8 O        1.702    -0.307    19.119     5.903
   386   6 C        3.894     0.105    18.801     6.164
   387   8 O        1.655    -0.343    19.770     6.002
   388   6 C        3.829    -0.105    22.480     6.746
   389   6 C        3.728     0.164    18.048     6.065
   390   7 N        2.739    -0.070    22.595     7.060
   391   6 C        2.699     0.322    21.531     7.595
   392   8 O        0.858    -0.481    23.358     6.480
   393   7 N        2.686    -0.201    25.359     7.479
   394   6 C        2.763     0.278    22.294     7.732
   395   8 O        0.859    -0.463    22.990     6.429
   396   6 C        2.951    -0.040    28.992     8.831
   397   6 C        3.755    -0.131    23.081     6.850
   398   6 C        2.848     0.013    27.729     8.630
   399   1 H        0.924     0.083     1.947     2.182
   400   1 H        0.925     0.085     1.932     2.174
   401   1 H        0.924     0.090     1.884     2.146
   402   1 H        0.924     0.079     1.991     2.207
   403   1 H        0.925     0.084     1.943     2.180
   404   1 H        0.925     0.087     1.910     2.161
   405   1 H        0.925     0.082     1.958     2.188
   406   1 H        0.851     0.239     0.927     1.508
   407   1 H        0.925     0.087     1.910     2.161
   408   1 H        0.924     0.072     2.063     2.246
   409   1 H        0.925     0.086     1.915     2.164
   410   1 H        0.926     0.115     1.651     2.009
   411  15 P        3.721     0.739   131.366    20.589
   412   8 O        1.614    -0.383    20.546     6.118
   413   8 O        0.808    -0.587    25.828     6.813
   414   8 O        1.656    -0.317    19.317     5.933
   415   6 C        3.910     0.051    19.657     6.302
   416   6 C        3.786     0.092    19.075     6.221
   417   8 O        1.701    -0.318    19.320     5.934
   418   6 C        3.893     0.100    18.885     6.178
   419   8 O        1.656    -0.348    19.865     6.017
   420   6 C        3.821    -0.105    22.486     6.748
   421   6 C        3.723     0.172    17.943     6.049
   422   7 N        2.742    -0.082    22.832     7.097
   423   6 C        2.750     0.330    21.397     7.574
   424   8 O        0.861    -0.526    24.363     6.618
   425   7 N        1.859    -0.362    30.274     8.155
   426   6 C        2.881     0.189    23.967     8.026
   427   7 N        2.667    -0.244    26.354     7.624
   428   6 C        2.917    -0.116    30.931     9.120
   429   6 C        2.878     0.033    27.254     8.558
   430   1 H        0.924     0.086     1.915     2.164
   431   1 H        0.924     0.090     1.875     2.142
   432   1 H        0.924     0.090     1.881     2.145
   433   1 H        0.924     0.074     2.047     2.237
   434   1 H        0.924     0.082     1.963     2.191
   435   1 H        0.926     0.094     1.841     2.122
   436   1 H        0.925     0.069     2.091     2.261
   437   1 H        0.857     0.237     0.936     1.515
   438   1 H        0.859     0.232     0.956     1.532
   439   1 H        0.926     0.101     1.778     2.085
   440   1 H        0.926     0.103     1.761     2.075
   441  15 P        3.711     0.758   130.744    20.540
   442   8 O        0.808    -0.586    25.812     6.810
   443   8 O        1.614    -0.385    20.578     6.123
   444   8 O        1.656    -0.328    19.498     5.961
   445   6 C        3.897     0.062    19.485     6.275
   446   6 C        3.822     0.092    19.039     6.209
   447   8 O        1.703    -0.317    19.300     5.931
   448   6 C        3.943     0.106    18.788     6.159
   449   8 O        1.657    -0.338    19.683     5.989
   450   6 C        3.837    -0.100    22.379     6.730
   451   6 C        3.728     0.167    18.007     6.058
   452   7 N        2.737    -0.079    22.767     7.087
   453   6 C        2.746     0.327    21.440     7.582
   454   8 O        0.861    -0.511    24.028     6.572
   455   7 N        1.853    -0.366    30.380     8.169
   456   6 C        2.877     0.198    23.795     7.997
   457   7 N        2.664    -0.245    26.398     7.631
   458   6 C        2.917    -0.106    30.664     9.081
   459   6 C        2.865     0.034    27.231     8.554
   460   1 H        0.924     0.079     1.990     2.206
   461   1 H        0.924     0.086     1.920     2.167
   462   1 H        0.924     0.082     1.955     2.187
   463   1 H        0.924     0.080     1.974     2.197
   464   1 H        0.924     0.081     1.971     2.195
   465   1 H        0.925     0.085     1.931     2.173
   466   1 H        0.924     0.079     1.985     2.203
   467   1 H        0.857     0.236     0.941     1.519
   468   1 H        0.860     0.230     0.963     1.537
   469   1 H        0.926     0.092     1.857     2.131
   470   1 H        0.926     0.099     1.792     2.093
   471  15 P        3.773     0.746   131.133    20.571
   472   8 O        1.614    -0.385    20.583     6.123
   473   8 O        0.808    -0.590    25.912     6.824
   474   8 O        1.656    -0.320    19.354     5.939
   475   6 C        3.906     0.051    19.661     6.303
   476   6 C        3.807     0.090    19.088     6.219
   477   8 O        1.708    -0.312    19.199     5.916
   478   6 C        3.915     0.092    19.004     6.196
   479   8 O        1.655    -0.344    19.792     6.006
   480   6 C        3.844    -0.102    22.410     6.734
   481   6 C        3.746     0.169    17.948     6.043
   482   7 N        2.740    -0.056    22.321     7.017
   483   6 C        2.698     0.325    21.479     7.585
   484   8 O        0.858    -0.484    23.441     6.491
   485   7 N        2.689    -0.185    25.003     7.426
   486   6 C        2.761     0.280    22.262     7.727
   487   8 O        0.859    -0.465    23.015     6.432
   488   6 C        2.950    -0.039    28.966     8.827
   489   6 C        3.755    -0.131    23.066     6.848
   490   6 C        2.855     0.014    27.692     8.625
   491   1 H        0.925     0.086     1.919     2.166
   492   1 H        0.925     0.093     1.849     2.127
   493   1 H        0.924     0.091     1.873     2.140
   494   1 H        0.924     0.083     1.951     2.184
   495   1 H        0.924     0.100     1.782     2.088
   496   1 H        0.925     0.071     2.075     2.252
   497   1 H        0.924     0.078     1.997     2.210
   498   1 H        0.854     0.228     0.974     1.546
   499   1 H        0.925     0.092     1.864     2.135
   500   1 H        0.924     0.077     2.009     2.217
   501   1 H        0.925     0.071     2.069     2.250
   502   1 H        0.926     0.113     1.669     2.020
   503  15 P        3.663     0.733   131.601    20.607
   504   8 O        0.808    -0.563    25.245     6.735
   505   8 O        1.614    -0.377    20.431     6.101
   506   8 O        1.655    -0.335    19.634     5.982
   507   6 C        3.839     0.055    19.632     6.303
   508   6 C        3.796     0.090    19.103     6.224
   509   8 O        1.701    -0.313    19.226     5.920
   510   6 C        3.926     0.101    18.869     6.173
   511   8 O        1.656    -0.341    19.743     5.998
   512   6 C        3.832    -0.101    22.395     6.733
   513   6 C        3.722     0.168    18.006     6.060
   514   7 N        2.833    -0.058    22.354     7.022
   515   6 C        3.203     0.099    25.259     8.188
   516   7 N        1.866    -0.294    28.463     7.908
   517   6 C        3.259    -0.002    26.918     8.386
   518   6 C        2.773     0.264    22.549     7.777
   519   8 O        0.860    -0.504    23.863     6.550
   520   7 N        2.715    -0.211    25.594     7.514
   521   6 C        2.841     0.250    22.819     7.828
   522   7 N        2.667    -0.276    27.142     7.738
   523   7 N        1.842    -0.356    30.120     8.134
   524   6 C        3.097     0.124    25.171     8.222
   525   1 H        0.925     0.086     1.922     2.168
   526   1 H        0.924     0.080     1.976     2.198
   527   1 H        0.924     0.095     1.834     2.118
   528   1 H        0.924     0.076     2.024     2.225
   529   1 H        0.925     0.087     1.913     2.163
   530   1 H        0.925     0.085     1.932     2.173
   531   1 H        0.925     0.076     2.019     2.222
   532   1 H        0.926     0.063     2.161     2.299
   533   1 H        0.852     0.230     0.967     1.541
   534   1 H        0.858     0.236     0.938     1.517
   535   1 H        0.859     0.244     0.908     1.493
   536  15 P        3.734     0.737   131.439    20.595
   537   8 O        0.808    -0.566    25.332     6.747
   538   8 O        1.614    -0.377    20.423     6.099
   539   8 O        1.656    -0.335    19.636     5.982
   540   6 C        3.892     0.062    19.490     6.276
   541   6 C        3.804     0.090    19.088     6.220
   542   8 O        1.703    -0.324    19.422     5.950
   543   6 C        3.946     0.107    18.757     6.154
   544   8 O        1.657    -0.351    19.921     6.025
   545   6 C        3.832    -0.099    22.370     6.729
   546   6 C        3.740     0.170    17.948     6.045
   547   7 N        2.833    -0.059    22.381     7.026
   548   6 C        3.148     0.088    25.789     8.307
   549   7 N        1.870    -0.281    28.152     7.865
   550   6 C        3.221    -0.005    27.416     8.513
   551   6 C        2.773     0.268    22.486     7.766
   552   8 O        0.859    -0.484    23.432     6.490
   553   7 N        2.711    -0.200    25.335     7.476
   554   6 C        2.829     0.249    22.825     7.829
   555   7 N        2.661    -0.267    26.904     7.704
   556   7 N        1.840    -0.376    30.662     8.206
   557   6 C        3.072     0.125    25.187     8.229
   558   1 H        0.924     0.076     2.018     2.221
   559   1 H        0.924     0.078     1.997     2.210
   560   1 H        0.924     0.082     1.961     2.190
   561   1 H        0.924     0.071     2.077     2.254
   562   1 H        0.924     0.094     1.836     2.119
   563   1 H        0.925     0.086     1.918     2.166
   564   1 H        0.924     0.066     2.133     2.284
   565   1 H        0.926     0.073     2.053     2.241
   566   1 H        0.854     0.235     0.944     1.523
   567   1 H        0.858     0.233     0.951     1.528
   568   1 H        0.858     0.231     0.962     1.537
   569  15 P        3.717     0.746   131.145    20.571
   570   8 O        0.808    -0.583    25.723     6.799
   571   8 O        1.614    -0.380    20.481     6.108
   572   8 O        1.655    -0.326    19.465     5.956
[...]
                           404 H    0.960
   389   6 C    3.930 --   385 O    0.979   388 C    0.978   405 H    0.953
                           390 N    0.951
   390   7 N    3.571 --   398 C    1.163   391 C    1.114   389 C    0.951
                           392 O    0.132
   391   6 C    3.959 --   392 O    1.607   393 N    1.157   390 N    1.114
   392   8 O    1.951 --   391 C    1.607   393 N    0.132   390 N    0.132
   393   7 N    3.520 --   391 C    1.157   394 C    1.146   406 H    0.831
                           395 O    0.139   392 O    0.132
   394   6 C    3.937 --   395 O    1.615   393 N    1.146   396 C    1.081
   395   8 O    2.017 --   394 C    1.615   393 N    0.139
   396   6 C    3.979 --   398 C    1.653   394 C    1.081   397 C    1.022
   397   6 C    3.981 --   396 C    1.022   409 H    0.980   407 H    0.966
                           408 H    0.966
   398   6 C    3.950 --   396 C    1.653   390 N    1.163   410 H    0.945
   399   1 H    0.993 --   383 C    0.966
   400   1 H    0.992 --   383 C    0.966
   401   1 H    0.991 --   384 C    0.949
   402   1 H    0.993 --   386 C    0.962
   403   1 H    0.993 --   388 C    0.966
   404   1 H    0.992 --   388 C    0.960
   405   1 H    0.993 --   389 C    0.953
   406   1 H    0.942 --   393 N    0.831
   407   1 H    0.991 --   397 C    0.966
   408   1 H    0.993 --   397 C    0.966
   409   1 H    0.992 --   397 C    0.980
   410   1 H    0.986 --   398 C    0.945
   411  15 P    5.452 --   413 O    1.752   412 O    1.377   414 O    1.151
                           387 O    1.110
   412   8 O    2.295 --   411 P    1.377   638 H    0.756
   413   8 O    1.963 --   411 P    1.752
   414   8 O    2.280 --   411 P    1.151   415 C    0.934
   415   6 C    3.922 --   416 C    0.989   431 H    0.965   430 H    0.965
                           414 O    0.934
   416   6 C    3.945 --   415 C    0.989   417 O    0.967   418 C    0.966
                           432 H    0.949
   417   8 O    2.079 --   421 C    0.977   416 C    0.967
   418   6 C    3.930 --   420 C    0.991   416 C    0.966   433 H    0.957
                           419 O    0.932
   419   8 O    2.258 --   441 P    1.117   418 C    0.932
   420   6 C    3.984 --   418 C    0.991   421 C    0.977   434 H    0.969
                           435 H    0.962
   421   6 C    3.934 --   420 C    0.977   417 O    0.977   436 H    0.956
                           422 N    0.954
   422   7 N    3.582 --   429 C    1.225   423 C    1.063   421 C    0.954
                           424 O    0.111
   423   6 C    3.953 --   424 O    1.555   425 N    1.243   422 N    1.063
   424   8 O    1.925 --   423 C    1.555   425 N    0.122   422 N    0.111
   425   7 N    3.066 --   426 C    1.344   423 C    1.243   424 O    0.122
                           427 N    0.113
   426   6 C    3.965 --   427 N    1.379   425 N    1.344   428 C    1.152
   427   7 N    3.457 --   426 C    1.379   438 H    0.921   437 H    0.872
                           425 N    0.113
   428   6 C    3.970 --   429 C    1.635   426 C    1.152   439 H    0.957
   429   6 C    3.956 --   428 C    1.635   422 N    1.225   440 H    0.948
   430   1 H    0.992 --   415 C    0.965
   431   1 H    0.992 --   415 C    0.965
   432   1 H    0.991 --   416 C    0.949
   433   1 H    0.994 --   418 C    0.957
   434   1 H    0.993 --   420 C    0.969
   435   1 H    0.991 --   420 C    0.962
   436   1 H    0.995 --   421 C    0.956
   437   1 H    0.943 --   427 N    0.872
   438   1 H    0.945 --   427 N    0.921
   439   1 H    0.989 --   428 C    0.957
   440   1 H    0.988 --   429 C    0.948
   441  15 P    5.443 --   442 O    1.762   443 O    1.361   444 O    1.133
                           419 O    1.117
   442   8 O    1.973 --   441 P    1.762
   443   8 O    2.283 --   441 P    1.361   637 H    0.759
   444   8 O    2.270 --   441 P    1.133   445 C    0.935
   445   6 C    3.920 --   446 C    0.990   460 H    0.966   461 H    0.965
                           444 O    0.935
   446   6 C    3.948 --   445 C    0.990   448 C    0.970   447 O    0.966
                           462 H    0.949
   447   8 O    2.072 --   451 C    0.972   446 C    0.966
   448   6 C    3.925 --   450 C    0.984   446 C    0.970   463 H    0.960
                           449 O    0.939
   449   8 O    2.268 --   471 P    1.115   448 C    0.939
   450   6 C    3.984 --   448 C    0.984   451 C    0.981   464 H    0.970
                           465 H    0.964
   451   6 C    3.929 --   450 C    0.981   447 O    0.972   466 H    0.953
                           452 N    0.953
   452   7 N    3.579 --   459 C    1.210   453 C    1.076   451 C    0.953
                           454 O    0.113
   453   6 C    3.954 --   454 O    1.550   455 N    1.236   452 N    1.076
   454   8 O    1.947 --   453 C    1.550   455 N    0.121   452 N    0.113
   455   7 N    3.069 --   456 C    1.344   453 C    1.236   454 O    0.121
                           457 N    0.114
   456   6 C    3.965 --   457 N    1.383   455 N    1.344   458 C    1.150
   457   7 N    3.460 --   456 C    1.383   468 H    0.924   467 H    0.866
                           455 N    0.114
   458   6 C    3.974 --   459 C    1.649   456 C    1.150   469 H    0.958
   459   6 C    3.957 --   458 C    1.649   452 N    1.210   470 H    0.952
   460   1 H    0.994 --   445 C    0.966
   461   1 H    0.992 --   445 C    0.965
   462   1 H    0.992 --   446 C    0.949
   463   1 H    0.993 --   448 C    0.960
   464   1 H    0.993 --   450 C    0.970
   465   1 H    0.993 --   450 C    0.964
   466   1 H    0.993 --   451 C    0.953
   467   1 H    0.944 --   457 N    0.866
   468   1 H    0.946 --   457 N    0.924
   469   1 H    0.991 --   458 C    0.958
   470   1 H    0.989 --   459 C    0.952
   471  15 P    5.449 --   473 O    1.754   472 O    1.375   474 O    1.142
                           449 O    1.115
   472   8 O    2.291 --   471 P    1.375   636 H    0.754
   473   8 O    1.961 --   471 P    1.754
   474   8 O    2.272 --   471 P    1.142   475 C    0.938
   475   6 C    3.922 --   476 C    0.987   492 H    0.964   491 H    0.963
                           474 O    0.938
   476   6 C    3.946 --   475 C    0.987   477 O    0.969   478 C    0.965
                           493 H    0.948
   477   8 O    2.067 --   476 C    0.969   481 C    0.966
   478   6 C    3.927 --   480 C    0.991   476 C    0.965   494 H    0.958
                           479 O    0.928
   479   8 O    2.255 --   503 P    1.111   478 C    0.928
   480   6 C    3.985 --   478 C    0.991   481 C    0.985   495 H    0.963
                           496 H    0.960
   481   6 C    3.932 --   480 C    0.985   477 O    0.966   482 N    0.961
                           497 H    0.953
   482   7 N    3.579 --   490 C    1.161   483 C    1.125   481 C    0.961
                           484 O    0.125
   483   6 C    3.959 --   484 O    1.573   485 N    1.172   482 N    1.125
   484   8 O    1.966 --   483 C    1.573   485 N    0.132   482 N    0.125
   485   7 N    3.529 --   483 C    1.172   486 C    1.127   498 H    0.859
                           487 O    0.137   484 O    0.132
   486   6 C    3.937 --   487 O    1.648   485 N    1.127   488 C    1.074
   487   8 O    1.970 --   486 C    1.648   485 N    0.137
   488   6 C    3.979 --   490 C    1.659   486 C    1.074   489 C    1.021
   489   6 C    3.982 --   488 C    1.021   500 H    0.980   501 H    0.968
                           499 H    0.966
   490   6 C    3.949 --   488 C    1.659   482 N    1.161   502 H    0.945
   491   1 H    0.992 --   475 C    0.963
   492   1 H    0.991 --   475 C    0.964
   493   1 H    0.991 --   476 C    0.948
   494   1 H    0.993 --   478 C    0.958
   495   1 H    0.989 --   480 C    0.963
   496   1 H    0.995 --   480 C    0.960
   497   1 H    0.993 --   481 C    0.953
   498   1 H    0.947 --   485 N    0.859
   499   1 H    0.990 --   489 C    0.966
   500   1 H    0.994 --   489 C    0.980
   501   1 H    0.993 --   489 C    0.968
   502   1 H    0.987 --   490 C    0.945
   503  15 P    5.466 --   504 O    1.790   505 O    1.372   506 O    1.124
                           479 O    1.111
   504   8 O    1.996 --   503 P    1.790
   505   8 O    2.298 --   503 P    1.372   635 H    0.769
   506   8 O    2.265 --   503 P    1.124   507 C    0.937
   507   6 C    3.919 --   508 C    0.982   525 H    0.968   526 H    0.966
                           506 O    0.937
   508   6 C    3.947 --   507 C    0.982   509 O    0.971   510 C    0.969
                           527 H    0.949
   509   8 O    2.080 --   513 C    0.973   508 C    0.971
   510   6 C    3.930 --   512 C    0.994   508 C    0.969   528 H    0.957
                           511 O    0.931
   511   8 O    2.266 --   536 P    1.121   510 C    0.931
   512   6 C    3.986 --   510 C    0.994   513 C    0.981   529 H    0.964
                           530 H    0.964
   513   6 C    3.934 --   512 C    0.981   509 O    0.973   514 N    0.959
                           531 H    0.955
   514   7 N    3.595 --   515 C    1.201   524 C    1.165   513 C    0.959
                           516 N    0.109
   515   6 C    3.945 --   516 N    1.612   514 N    1.201   532 H    0.952
   516   7 N    3.011 --   515 C    1.612   517 C    1.188   514 N    0.109
   517   6 C    3.963 --   524 C    1.349   516 N    1.188   518 C    1.139
   518   6 C    3.947 --   519 O    1.547   520 N    1.141   517 C    1.139
   519   8 O    1.966 --   518 C    1.547   520 N    0.130
   520   7 N    3.508 --   521 C    1.177   518 C    1.141   533 H    0.829
                           519 O    0.130
   521   6 C    3.964 --   523 N    1.361   522 N    1.332   520 N    1.177
   522   7 N    3.392 --   521 C    1.332   535 H    0.919   534 H    0.875
                           523 N    0.107
   523   7 N    2.954 --   521 C    1.361   524 C    1.231   522 N    0.107
   524   6 C    3.959 --   517 C    1.349   523 N    1.231   514 N    1.165
   525   1 H    0.992 --   507 C    0.968
   526   1 H    0.993 --   507 C    0.966
   527   1 H    0.990 --   508 C    0.949
   528   1 H    0.994 --   510 C    0.957
   529   1 H    0.992 --   512 C    0.964
   530   1 H    0.993 --   512 C    0.964
   531   1 H    0.994 --   513 C    0.955
   532   1 H    0.995 --   515 C    0.952
   533   1 H    0.947 --   520 N    0.829
   534   1 H    0.943 --   522 N    0.875
   535   1 H    0.939 --   522 N    0.919
   536  15 P    5.471 --   537 O    1.792   538 O    1.388   511 O    1.121
                           539 O    1.107
   537   8 O    1.992 --   536 P    1.792
   538   8 O    2.301 --   536 P    1.388   634 H    0.757
   539   8 O    2.257 --   536 P    1.107   540 C    0.943
   540   6 C    3.925 --   541 C    0.988   559 H    0.967   558 H    0.966
                           539 O    0.943
   541   6 C    3.949 --   540 C    0.988   542 O    0.967   543 C    0.966
                           560 H    0.950
   542   8 O    2.063 --   541 C    0.967   546 C    0.962
   543   6 C    3.928 --   545 C    0.992   541 C    0.966   561 H    0.961
                           544 O    0.929
   544   8 O    2.249 --   569 P    1.102   543 C    0.929
   545   6 C    3.984 --   543 C    0.992   546 C    0.980   563 H    0.966
                           562 H    0.965
   546   6 C    3.935 --   545 C    0.980   547 N    0.970   542 O    0.962
                           564 H    0.955
   547   7 N    3.591 --   548 C    1.193   557 C    1.163   546 C    0.970
                           549 N    0.110
   548   6 C    3.940 --   549 N    1.613   547 N    1.193   565 H    0.955
   549   7 N    3.013 --   548 C    1.613   550 C    1.191   547 N    0.110
   550   6 C    3.964 --   557 C    1.361   549 N    1.191   551 C    1.127
   551   6 C    3.948 --   552 O    1.577   553 N    1.131   550 C    1.127
   552   8 O    1.974 --   551 C    1.577   553 N    0.132
   553   7 N    3.512 --   554 C    1.182   551 C    1.131   566 H    0.842
                           552 O    0.132
   554   6 C    3.964 --   556 N    1.361   555 N    1.328   553 N    1.182
   555   7 N    3.397 --   554 C    1.328   568 H    0.924   567 H    0.883
                           556 N    0.107
   556   7 N    2.945 --   554 C    1.361   557 C    1.222   555 N    0.107
   557   6 C    3.959 --   550 C    1.361   556 N    1.222   547 N    1.163
   558   1 H    0.994 --   540 C    0.966
   559   1 H    0.993 --   540 C    0.967
   560   1 H    0.993 --   541 C    0.950
   561   1 H    0.994 --   543 C    0.961
   562   1 H    0.991 --   545 C    0.965
   563   1 H    0.993 --   545 C    0.966
   564   1 H    0.996 --   546 C    0.955
   565   1 H    0.994 --   548 C    0.955
   566   1 H    0.944 --   553 N    0.842
   567   1 H    0.945 --   555 N    0.883
   568   1 H    0.945 --   555 N    0.924
   569  15 P    5.448 --   570 O    1.766   571 O    1.375   572 O    1.135
                           544 O    1.102
   570   8 O    1.976 --   569 P    1.766
   571   8 O    2.293 --   569 P    1.375   633 H    0.760
   572   8 O    2.271 --   569 P    1.135   573 C    0.939
   573   6 C    3.921 --   574 C    0.984   590 H    0.970   591 H    0.967
                           572 O    0.939
   574   6 C    3.948 --   573 C    0.984   575 O    0.970   576 C    0.970
                           592 H    0.950
   575   8 O    2.082 --   579 C    0.977   574 C    0.970
   576   6 C    3.928 --   578 C    0.992   574 C    0.970   593 H    0.960
                           577 O    0.929
   577   8 O    2.289 --   601 P    1.158   576 C    0.929
   578   6 C    3.987 --   576 C    0.992   579 C    0.979   594 H    0.969
                           595 H    0.963
   579   6 C    3.934 --   578 C    0.979   575 O    0.977   580 N    0.956
                           596 H    0.955
   580   7 N    3.599 --   581 C    1.209   589 C    1.162   579 C    0.956
                           582 N    0.115
   581   6 C    3.949 --   582 N    1.599   580 N    1.209   597 H    0.951
   582   7 N    3.001 --   581 C    1.599   583 C    1.179   580 N    0.115
   583   6 C    3.969 --   589 C    1.339   584 C    1.182   582 N    1.179
   584   6 C    3.969 --   585 N    1.352   586 N    1.298   583 C    1.182
   585   7 N    3.440 --   584 C    1.352   599 H    0.932   598 H    0.863
   586   7 N    3.107 --   587 C    1.404   584 C    1.298
   587   6 C    3.969 --   588 N    1.467   586 N    1.404   600 H    0.958
   588   7 N    3.004 --   587 C    1.467   589 C    1.252
   589   6 C    3.960 --   583 C    1.339   588 N    1.252   580 N    1.162
   590   1 H    0.993 --   573 C    0.970
   591   1 H    0.993 --   573 C    0.967
   592   1 H    0.991 --   574 C    0.950
   593   1 H    0.993 --   576 C    0.960
   594   1 H    0.993 --   578 C    0.969
   595   1 H    0.992 --   578 C    0.963
   596   1 H    0.994 --   579 C    0.955
   597   1 H    0.993 --   581 C    0.951
   598   1 H    0.940 --   585 N    0.863
   599   1 H    0.952 --   585 N    0.932
   600   1 H    0.998 --   587 C    0.958
   601  15 P    5.471 --   602 O    1.754   603 O    1.371   577 O    1.158
                           604 O    1.127
   602   8 O    1.968 --   601 P    1.754
   603   8 O    2.283 --   601 P    1.371   632 H    0.750
   604   8 O    2.271 --   601 P    1.127   605 C    0.937
   605   6 C    3.923 --   606 C    0.989   620 H    0.970   621 H    0.968
                           604 O    0.937
   606   6 C    3.942 --   605 C    0.989   608 C    0.967   607 O    0.961
                           622 H    0.953
   607   8 O    2.063 --   611 C    0.971   606 C    0.961
   608   6 C    3.961 --   609 O    0.994   610 C    0.988   606 C    0.967
                           623 H    0.962
   609   8 O    1.919 --   608 C    0.994   624 H    0.858
   610   6 C    3.987 --   608 C    0.988   611 C    0.975   626 H    0.972
                           625 H    0.969
   611   6 C    3.929 --   610 C    0.975   607 O    0.971   612 N    0.957
                           627 H    0.956
   612   7 N    3.571 --   619 C    1.205   613 C    1.071   611 C    0.957
                           614 O    0.111
   613   6 C    3.951 --   614 O    1.541   615 N    1.245   612 N    1.071
   614   8 O    1.936 --   613 C    1.541   615 N    0.120   612 N    0.111
   615   7 N    3.074 --   616 C    1.346   613 C    1.245   614 O    0.120
                           617 N    0.112
   616   6 C    3.967 --   617 N    1.386   615 N    1.346   618 C    1.143
   617   7 N    3.457 --   616 C    1.386   629 H    0.919   628 H    0.878
                           615 N    0.112
   618   6 C    3.973 --   619 C    1.655   616 C    1.143   630 H    0.959
   619   6 C    3.958 --   618 C    1.655   612 N    1.205   631 H    0.950
   620   1 H    0.996 --   605 C    0.970
   621   1 H    0.993 --   605 C    0.968
   622   1 H    0.993 --   606 C    0.953
   623   1 H    0.996 --   608 C    0.962
   624   1 H    0.874 --   609 O    0.858
   625   1 H    0.995 --   610 C    0.969
   626   1 H    0.994 --   610 C    0.972
   627   1 H    0.995 --   611 C    0.956
   628   1 H    0.939 --   617 N    0.878
   629   1 H    0.942 --   617 N    0.919
   630   1 H    0.990 --   618 C    0.959
   631   1 H    0.991 --   619 C    0.950
   632   1 H    0.786 --   603 O    0.750
   633   1 H    0.800 --   571 O    0.760
   634   1 H    0.796 --   538 O    0.757
   635   1 H    0.812 --   505 O    0.769
   636   1 H    0.789 --   472 O    0.754
   637   1 H    0.800 --   443 O    0.759
   638   1 H    0.790 --   412 O    0.756
   639   1 H    0.789 --   381 O    0.754
   640   1 H    0.787 --   348 O    0.752
   641   1 H    0.801 --   255 O    0.762
   642   1 H    0.791 --   223 O    0.753
   643   1 H    0.784 --   190 O    0.749
   644   1 H    0.787 --   157 O    0.752
   645   1 H    0.786 --   135 O    0.751
   646   1 H    0.785 --    95 O    0.749
   647   1 H    0.787 --    65 O    0.753
   648   1 H    0.791 --    33 O    0.756
   649   1 H    0.790 --   286 O    0.753
 ---------------------------------------------------------------------------

Topologies differ in total number of bonds
Writing topology from bond orders to xtbtopo.mol

molecular dipole:
                 x           y           z       tot (Debye)
 q only:        6.542      12.604       2.823
   full:        8.031      12.104       4.154      38.401
molecular quadrupole (traceless):
                xx          xy          yy          xz          yz          zz
 q only:     -317.459    1087.168     948.796     548.872     821.863    -631.337
  q+dip:     -264.751    1212.670     798.282     702.485     952.423    -533.530
   full:     -282.633    1212.638     823.142     704.494     971.601    -540.509


           -------------------------------------------------
          | TOTAL ENERGY            -1285.074375099040 Eh   |
          | GRADIENT NORM               0.672019913426 Eh/α |
          | HOMO-LUMO GAP               2.499185744913 eV   |
           -------------------------------------------------
########################################################################
[WARNING] Runtime exception occurred
-2- restart_readRestart: Dimension missmatch in restart file.
-1- restart_readRestart: Number of electron missmatch in restart file.
########################################################################

------------------------------------------------------------------------
 * finished run on 2023/03/09 at 13:52:29.059     
------------------------------------------------------------------------
 total:
 * wall-time:     0 d,  0 h,  0 min,  9.809 sec
 *  cpu-time:     0 d,  0 h,  1 min, 32.395 sec
 * ratio c/w:     9.420 speedup
 SCF:
 * wall-time:     0 d,  0 h,  0 min,  8.996 sec
 *  cpu-time:     0 d,  0 h,  1 min, 26.337 sec
 * ratio c/w:     9.597 speedup

